/*--------------------------------*- C++ -*----------------------------------*\
| =========                 |                                                 |
| \\      /  F ield         | OpenFOAM: The Open Source CFD Toolbox           |
|  \\    /   O peration     | Version:  2406                                  |
|   \\  /    A nd           | Website:  www.openfoam.com                      |
|    \\/     M anipulation  |                                                 |
\*---------------------------------------------------------------------------*/
FoamFile
{
    version     2.0;
    format      ascii;
    arch        "LSB;label=32;scalar=64";
    class       volScalarField;
    location    "100";
    object      k;
}
// * * * * * * * * * * * * * * * * * * * * * * * * * * * * * * * * * * * * * //

dimensions      [0 2 -2 0 0 0 0];

internalField   nonuniform List<scalar> 
71615
(
0.019677418
0.019687247
0.017011776
0.017007452
0.014895302
0.014890868
0.013240679
0.013237413
0.01191733
0.011915063
0.010845342
0.010844391
0.0099758265
0.0099768905
0.009282248
0.0092874496
0.0087483269
0.008761342
0.0083484852
0.0083744428
0.0080274866
0.008065568
0.0077189084
0.0077586479
0.0073992516
0.0074331595
0.0070873973
0.0071279015
0.0068104609
0.0068889511
0.006607046
0.0068339197
0.0065505712
0.0070728498
0.0068113328
0.0078331769
0.0077098154
0.0094393685
0.009810153
0.012223683
0.013641828
0.016326375
0.01913812
0.021558394
0.019679963
0.019658051
0.01965294
0.019652076
0.019653483
0.019662211
0.01968797
0.017004331
0.016710821
0.016700594
0.016697169
0.016704096
0.016996673
0.017005022
0.014890992
0.014668485
0.01466394
0.014661374
0.014665115
0.014888663
0.014890784
0.013237399
0.013058377
0.013055118
0.013052508
0.013055675
0.013235433
0.013237786
0.011915129
0.01176789
0.011764395
0.011761152
0.011765068
0.011912766
0.011915953
0.01084459
0.010723113
0.010719291
0.010715022
0.010719985
0.01084147
0.010845496
0.0099771859
0.0098814806
0.0098795246
0.0098740499
0.0098790717
0.0099737195
0.0099779658
0.0092865661
0.0092239499
0.0092313905
0.009225995
0.0092258699
0.0092857423
0.0092866681
0.0087568461
0.0087476274
0.0087832064
0.0087883361
0.0087619376
0.0087669314
0.0087546594
0.0083613732
0.0084292066
0.0084851666
0.0085203985
0.0084283908
0.0083961906
0.0083554635
0.0080427986
0.0081898949
0.0096289019
0.010652244
0.0086385518
0.0081086114
0.008032289
0.0077315897
0.0088325056
0.017935224
0.023526381
0.011974598
0.0078324918
0.0077194233
0.0074066672
0.01201247
0.035533278
0.045934294
0.022140075
0.0077321144
0.0073944556
0.0070877103
0.018817691
0.055295211
0.068897524
0.036588619
0.0081575933
0.0070782173
0.0068493854
0.028564359
0.073149394
0.088310436
0.051945495
0.0097987986
0.0067956763
0.0067592568
0.039669236
0.087991242
0.1026049
0.065810233
0.013487498
0.0065641435
0.0069444637
0.050598144
0.099029053
0.11183272
0.077657752
0.019756262
0.0064833728
0.0076546935
0.060505648
0.10596131
0.11692898
0.086718857
0.027667018
0.0066750329
0.0092587488
0.068801188
0.10942579
0.11879226
0.092596777
0.035977826
0.0074344616
0.012099261
0.074740214
0.1103302
0.11833649
0.095775228
0.043526568
0.0092067736
0.016200583
0.078567629
0.10953987
0.11637684
0.097010887
0.049695455
0.012385864
0.021250504
0.081340401
0.10816738
0.11373588
0.097582295
0.05462597
0.017070982
0.019673066
0.019651893
0.019650716
0.019650674
0.019650686
0.019650681
0.019650798
0.019653418
0.019680979
0.016999265
0.016694419
0.016684919
0.01668115
0.016680577
0.016682603
0.01668923
0.01670813
0.017001695
0.014887999
0.014660532
0.014653962
0.014649321
0.014648323
0.014651275
0.014657683
0.014667436
0.014888278
0.013234598
0.013052338
0.013046503
0.013042043
0.013040849
0.013043908
0.013049647
0.013057398
0.013234485
0.011912257
0.011761281
0.011753398
0.011747571
0.011745847
0.011749877
0.011757324
0.011767111
0.011912169
0.010842
0.010715628
0.010706369
0.010700049
0.010697796
0.010702233
0.010710631
0.010723151
0.010841634
0.0099762161
0.0098759054
0.0098733393
0.0098775232
0.0098768892
0.0098734898
0.0098735383
0.0098839899
0.0099741169
0.0092903542
0.0092298233
0.0092652973
0.0093070051
0.0093163551
0.0092967774
0.009244669
0.0092327961
0.0092826574
0.008768525
0.0087895753
0.0088949953
0.009858228
0.010720571
0.0091350242
0.0088352533
0.0087665601
0.0087507682
0.0083846656
0.0085362356
0.014664754
0.063359538
0.084556643
0.035142284
0.0093924385
0.0084630689
0.0083528635
0.0080774971
0.010135434
0.074037389
0.21555149
0.25496367
0.14965888
0.025981449
0.0082773613
0.0080319629
0.0077723452
0.022264248
0.16344141
0.31473375
0.34988614
0.25145418
0.075847747
0.0090308689
0.007720484
0.0074618751
0.047269256
0.21512777
0.34454979
0.37333328
0.2918094
0.12769955
0.012948671
0.0073943518
0.0072002786
0.075778063
0.23562913
0.34397475
0.36753509
0.30030721
0.15896007
0.021912784
0.0070772766
0.0071635765
0.098461053
0.2398212
0.32927049
0.34830979
0.29358195
0.17421877
0.034888951
0.006791669
0.0076132268
0.11346892
0.23485767
0.30778332
0.32298458
0.27895149
0.17981788
0.048915478
0.0066048106
0.0090529686
0.12223336
0.22483145
0.28400188
0.29612091
0.26079166
0.1791687
0.061709541
0.0066026027
0.012130083
0.12637356
0.21243093
0.26056444
0.27030126
0.24179482
0.17463271
0.072480712
0.007004125
0.017227333
0.12718225
0.19933861
0.23881073
0.24672702
0.22348479
0.16792596
0.08044767
0.0082525408
0.023620604
0.12579051
0.18660707
0.21931124
0.22581987
0.20666187
0.16029768
0.085504111
0.010805946
0.030144313
0.12328943
0.17497353
0.20220768
0.20757224
0.19172579
0.15276947
0.088365592
0.01478442
0.036025561
0.12094205
0.16488686
0.18757889
0.19201004
0.17888068
0.14618386
0.090388778
0.019851472
0.019679968
0.019651884
0.019650641
0.019650611
0.019650599
0.019650597
0.019650605
0.019650627
0.019650676
0.019653996
0.019676122
0.017004526
0.016694392
0.016681497
0.016676115
0.016674173
0.016673914
0.016675033
0.016678299
0.016686677
0.016710417
0.017007618
0.014891608
0.014660549
0.014649876
0.014641324
0.014636925
0.014636109
0.014638811
0.014645174
0.014655313
0.014667337
0.014893862
0.013238528
0.01305233
0.01304239
0.01303218
0.013025312
0.013023827
0.013028208
0.013037244
0.013047402
0.013056781
0.01323982
0.011916868
0.011761145
0.011748005
0.011734821
0.011725285
0.01172315
0.011729182
0.011741385
0.011754573
0.011766292
0.011917123
0.010846398
0.010715293
0.010700387
0.010687624
0.010678054
0.010672903
0.010681461
0.010693491
0.0107077
0.01072212
0.010845803
0.0099785384
0.0098754135
0.009872314
0.0099046564
0.009900837
0.0097967381
0.0099023893
0.0098790199
0.0098728011
0.0098817503
0.0099765656
0.0092873459
0.0092293142
0.0092928918
0.0095061226
0.012092541
0.014144083
0.010261663
0.0092873921
0.0092543757
0.0092263266
0.009282135
0.0087573971
0.008790027
0.0092154399
0.043722938
0.19161431
0.24265831
0.11222362
0.013400041
0.008854095
0.0087517854
0.0087446002
0.0083617121
0.0085380908
0.036104574
0.31272953
0.61025501
0.68178659
0.48199823
0.14436766
0.010446108
0.0084343797
0.0083380668
0.0080432186
0.010162878
0.1658882
0.53213931
0.8008906
0.86253513
0.68850279
0.35165059
0.040484811
0.00817759
0.0080092094
0.0077319322
0.022487206
0.27127118
0.5800287
0.78406691
0.82828259
0.69961374
0.43584801
0.11170709
0.0084462775
0.0076964218
0.0074069181
0.04775163
0.31007437
0.559773
0.72030496
0.7556585
0.65406924
0.44469966
0.16751755
0.010582441
0.0073761173
0.0070878055
0.076383401
0.31616093
0.51851433
0.64212951
0.66830792
0.59186676
0.42654033
0.19507624
0.016123169
0.0070642413
0.006851582
0.098993263
0.30700192
0.46795209
0.56003762
0.57876288
0.52330836
0.39619172
0.20567329
0.025194667
0.0067803393
0.0067656621
0.11389085
0.29002622
0.4166837
0.48518889
0.49869942
0.45830709
0.36123037
0.20645704
0.036333404
0.0065462909
0.0069607842
0.1225636
0.26975776
0.3696969
0.42157136
0.43159223
0.40146311
0.32656542
0.20138303
0.047738136
0.006398555
0.0076905319
0.12662455
0.24903406
0.32874698
0.36898956
0.37666431
0.35352257
0.29470017
0.19308652
0.058135452
0.0064716312
0.0093252464
0.12736804
0.22938623
0.29390101
0.32588152
0.33193297
0.31366166
0.26654531
0.18331159
0.066963276
0.0069675003
0.012200105
0.12592623
0.21158023
0.26457599
0.29048173
0.2953572
0.28062647
0.24223741
0.17323505
0.073378406
0.0083284118
0.016326028
0.12338868
0.19594125
0.23989607
0.26121443
0.26522074
0.25312324
0.22145076
0.16375897
0.077586411
0.011135653
0.021384848
0.12100129
0.18257034
0.21951826
0.23754235
0.24094658
0.23069432
0.20401065
0.15550795
0.080668664
0.015847664
0.019658056
0.019650714
0.019650607
0.019650573
0.019650554
0.019650549
0.019650557
0.019650584
0.019650631
0.01965094
0.019669547
0.016710927
0.01668482
0.016675912
0.016672212
0.01667064
0.016670402
0.01667137
0.016673873
0.016679331
0.016691346
0.01700022
0.014668562
0.014653684
0.014640941
0.014632529
0.014627919
0.014627047
0.01462994
0.014636462
0.014646784
0.014657137
0.014889652
0.01305823
0.013045865
0.01303153
0.013018109
0.013009651
0.01300787
0.01301324
0.013024535
0.013038967
0.01304825
0.013236359
0.011767389
0.01175227
0.011733874
0.01171541
0.011704504
0.01170189
0.011708525
0.011724184
0.011743443
0.011756263
0.011914311
0.010722185
0.010704879
0.010686567
0.010670563
0.010697605
0.010697474
0.010676002
0.010676757
0.010695134
0.010709678
0.010844688
0.0098803797
0.0098717248
0.0099038208
0.009860979
0.010251705
0.010571815
0.0099607635
0.0099003714
0.0098738269
0.0098698506
0.0099802607
0.0092228156
0.0092648699
0.0095129
0.026620296
0.12734083
0.17160199
0.068484592
0.011881443
0.0093134468
0.0092284778
0.009298437
0.0087471501
0.008897442
0.044234934
0.40659649
0.81194445
0.90946454
0.63354132
0.18392938
0.01076968
0.0088046015
0.0087875488
0.0084301681
0.01495648
0.315249
0.89288129
1.3526408
1.4631466
1.1537605
0.60300981
0.091750546
0.0086232759
0.0084230364
0.0081963259
0.075485819
0.53456802
1.0434671
1.4490014
1.5515506
1.2696365
0.79499606
0.27672549
0.012450923
0.008129796
0.0088752296
0.16556643
0.581634
0.96491522
1.1955001
1.3070957
1.131436
0.78010665
0.37154796
0.033981174
0.0078346137
0.012168912
0.21685944
0.56077116
0.8617643
1.0936809
1.1516691
0.99020972
0.71752381
0.39220689
0.065904581
0.0076606425
0.019129966
0.23692231
0.51913675
0.74507081
0.89328546
0.9261411
0.83070338
0.64035554
0.38347563
0.095638867
0.0078814578
0.029006741
0.24075511
0.4683438
0.63222896
0.72593975
0.74500405
0.68800173
0.55899555
0.36157062
0.1165829
0.0089000123
0.040163522
0.23551587
0.41693214
0.53643758
0.59837182
0.6102566
0.57405201
0.48457443
0.33378934
0.12921687
0.011118203
0.051079677
0.22528783
0.36985362
0.45912286
0.50247439
0.51049034
0.48580852
0.42118978
0.3048365
0.13574742
0.014713693
0.060942721
0.21273972
0.32884313
0.3975006
0.42953521
0.43533251
0.41739133
0.36873697
0.27734861
0.13791352
0.019754964
0.069158097
0.19954187
0.29395662
0.34824629
0.37297694
0.37740225
0.3636864
0.32571648
0.252499
0.13698251
0.025863902
0.075009459
0.18673637
0.26460572
0.308481
0.32822939
0.33175197
0.32084624
0.29038992
0.23068168
0.13410048
0.032243848
0.078762064
0.17505011
0.2399073
0.27605124
0.29230259
0.29520934
0.28623609
0.26118813
0.2118448
0.13033663
0.038143175
0.081477587
0.16492347
0.21951579
0.25024465
0.26430212
0.26684954
0.25903611
0.23756758
0.19591291
0.12694906
0.043205638
0.019677329
0.019652942
0.019650667
0.019650587
0.019650547
0.019650521
0.019650511
0.019650524
0.019650555
0.019650606
0.019650753
0.019657058
0.01701159
0.016700587
0.016680865
0.016673632
0.016670338
0.016668812
0.016668548
0.016669507
0.016671846
0.016676513
0.016687916
0.016993788
0.014895217
0.014663823
0.014648765
0.014636
0.014627377
0.014622489
0.01462154
0.014624632
0.014631451
0.014641882
0.014656303
0.01488779
0.013240682
0.013054612
0.013040995
0.013023865
0.0130088
0.012999219
0.012997013
0.013003293
0.013015992
0.013032679
0.013048155
0.013234421
0.01191757
0.011763234
0.011745879
0.011723249
0.011703309
0.0116886
0.011680867
0.011695335
0.011712278
0.011735003
0.011754972
0.011911632
0.010845632
0.01071752
0.010697958
0.010675698
0.010696378
0.010676352
0.010600164
0.010694696
0.010672322
0.010687067
0.010707403
0.010841438
0.0099761419
0.0098777786
0.0098757855
0.0098989375
0.010253365
0.015392909
0.019021619
0.011889234
0.0098770142
0.0099023422
0.0098707829
0.009977927
0.0092828145
0.0092303723
0.0093061201
0.012181185
0.12836414
0.42260325
0.50646538
0.27987988
0.037448895
0.0094676318
0.0092482995
0.0093009151
0.0087497164
0.0087852336
0.0099086638
0.1947685
0.81548575
1.3524824
1.4762583
1.1198037
0.48463171
0.039063918
0.0088201409
0.0088039177
0.0083509388
0.0084908485
0.065058898
0.61632012
1.3603598
1.9619836
2.0897831
1.7018838
0.98534613
0.28169557
0.011123402
0.008457854
0.0080308124
0.0097033696
0.21876677
0.80533224
1.3468554
1.9632989
2.133206
1.8318324
1.119581
0.49903167
0.045472709
0.0081994451
0.0077226185
0.01826635
0.31725887
0.78691469
1.1986498
1.6762837
1.9393018
1.631412
1.0215283
0.5524566
0.11022254
0.0082996488
0.0074028798
0.036141876
0.34628857
0.72200287
1.0954548
1.4453654
1.5246305
1.2850671
0.904568
0.53675347
0.16050898
0.0097691689
0.0070908533
0.055987375
0.34514185
0.64315213
0.89415734
1.0747263
1.1146376
0.99663892
0.77427598
0.49964952
0.18670945
0.013731608
0.0068145618
0.073776953
0.33004156
0.56064002
0.72637652
0.82359639
0.8433838
0.78368182
0.65158717
0.45307797
0.19740366
0.020243875
0.0066132854
0.08850633
0.30827914
0.48553883
0.59859682
0.65604755
0.66687769
0.63343047
0.54967599
0.40517021
0.19905244
0.028954334
0.0065621161
0.099405896
0.28430906
0.421769
0.50259063
0.53998743
0.54665137
0.52571157
0.46861871
0.3607736
0.1950903
0.038686812
0.0068336903
0.10622006
0.26074441
0.36909403
0.42959281
0.45605475
0.46061176
0.44616003
0.40463809
0.32174531
0.18781002
0.048039241
0.0077524394
0.10959552
0.23890565
0.32592864
0.37300198
0.39296976
0.39635612
0.38559276
0.35381875
0.28829825
0.17886867
0.055995312
0.0098834348
0.11043443
0.21934971
0.29049358
0.32823603
0.34405868
0.34673389
0.33824776
0.31295604
0.2599775
0.16939942
0.062153182
0.013737525
0.10959627
0.2022081
0.26120389
0.29229848
0.30537019
0.3075948
0.30057459
0.27973622
0.23602755
0.16020884
0.066522039
0.019233047
0.10818841
0.18755178
0.23751557
0.2642901
0.27585576
0.27786846
0.27158548
0.25341468
0.21617042
0.15197415
0.069457387
0.019687545
0.019652078
0.019650673
0.019650579
0.019650535
0.019650509
0.019650498
0.019650512
0.019650546
0.019650594
0.019650747
0.019654728
0.017007331
0.0166972
0.016680171
0.0166732
0.016669942
0.01666847
0.016668186
0.016669135
0.016671479
0.016675945
0.016686537
0.01671363
0.014890916
0.014661355
0.014647654
0.014634944
0.014626234
0.014621339
0.014620332
0.014623457
0.01463042
0.014640776
0.014654729
0.014667605
0.013237603
0.013052169
0.01303973
0.013022089
0.013006616
0.012996667
0.012994538
0.013000904
0.013014111
0.013031134
0.013046618
0.013056636
0.01191537
0.011760232
0.01174418
0.011720811
0.01170019
0.011680327
0.011678239
0.011691178
0.011709683
0.011732997
0.011753235
0.011765696
0.010844234
0.010713695
0.010695929
0.010670758
0.010696471
0.01059138
0.01052453
0.010685824
0.010672905
0.010684127
0.01070593
0.01072046
0.0099770817
0.0098729544
0.0098759268
0.0097968143
0.0105876
0.019124356
0.024975457
0.01334727
0.0099160948
0.0098845682
0.0098716427
0.0098773633
0.0092879386
0.0092258448
0.0093169707
0.014316908
0.17381985
0.50865399
0.59957334
0.3491222
0.053886371
0.0095778977
0.0092553044
0.009215989
0.0087629789
0.0087903213
0.010810984
0.24677653
0.91548851
1.4805554
1.608198
1.2361568
0.56382565
0.05472459
0.0088597774
0.008731338
0.0083770728
0.008528374
0.086498448
0.68888889
1.4740347
2.0975026
2.2116848
1.833279
1.0774498
0.33481152
0.012965661
0.0083964201
0.0080690996
0.010741356
0.25785596
0.86810657
1.4935821
2.1442359
2.1982651
2.0382331
1.2007633
0.55089806
0.060343288
0.0081078735
0.0077619298
0.02382939
0.35182218
0.83170071
1.3144045
1.951241
1.9973809
1.9217662
1.1685933
0.59215405
0.13522547
0.0082863551
0.007436074
0.046301858
0.3746117
0.75803105
1.1561871
1.5298556
1.5969751
1.3634569
0.94893657
0.56820038
0.1853101
0.0098810256
0.007130697
0.069237165
0.36837104
0.66982054
0.928362
1.1165813
1.1563843
1.035077
0.80358737
0.52440352
0.2085034
0.013634198
0.0068935345
0.08855734
0.34882521
0.57963674
0.74606175
0.84415093
0.86390348
0.80366593
0.67058273
0.47203719
0.2159992
0.019599402
0.0068408292
0.10274839
0.3232723
0.49917413
0.61076807
0.66720897
0.67776648
0.64491592
0.56243099
0.41959815
0.21460045
0.027277977
0.0070827166
0.11188157
0.29625466
0.43183277
0.51073841
0.54680275
0.55315674
0.53303474
0.47762976
0.37187091
0.20791049
0.035759813
0.0078456637
0.1169055
0.27033629
0.37676989
0.43544742
0.46068118
0.46496447
0.45126895
0.41132888
0.33043981
0.19836783
0.044237937
0.0094508108
0.11871872
0.24670115
0.33196155
0.37744734
0.39638531
0.39954667
0.38941599
0.35899271
0.29524603
0.18761137
0.052223085
0.012225612
0.11823007
0.2257579
0.29534248
0.33175984
0.34674245
0.34923614
0.34126469
0.31708517
0.26561596
0.17669129
0.05877484
0.01630748
0.11625047
0.20748953
0.26518165
0.29519694
0.30759243
0.30967154
0.30306459
0.28312524
0.24065299
0.16627781
0.063603063
0.0215092
0.11359734
0.19191346
0.24089061
0.26682278
0.27785825
0.27975638
0.27379705
0.25632945
0.22003986
0.15690461
0.066430561
0.019653486
0.019650665
0.019650586
0.019650547
0.019650515
0.019650505
0.019650518
0.019650555
0.019650603
0.019650768
0.01965858
0.016704128
0.016682258
0.016674475
0.016671109
0.016669488
0.016669172
0.016670157
0.016672614
0.016677406
0.016690059
0.016995359
0.014665177
0.014650768
0.014637962
0.014629476
0.014624624
0.014623607
0.01462667
0.014633488
0.014643663
0.014657358
0.014887577
0.01305554
0.013043129
0.01302704
0.013012612
0.01300338
0.013001227
0.013007199
0.01301959
0.013035202
0.013048389
0.01323362
0.011764419
0.011748773
0.01172776
0.011707849
0.01169559
0.011691668
0.011700709
0.011717162
0.011738559
0.011755341
0.011909957
0.010718874
0.010701077
0.010680215
0.010675841
0.01069504
0.010686035
0.010694754
0.010670373
0.01069043
0.010708149
0.010838701
0.0098781304
0.0098729892
0.0099022635
0.0099668622
0.011937946
0.013385657
0.01054799
0.0098350453
0.0098816586
0.0098707342
0.0099733379
0.0092258108
0.0092975886
0.010311565
0.069987182
0.28282683
0.35070799
0.17175288
0.020799882
0.0093292119
0.0092410012
0.009291868
0.0087638467
0.0091556706
0.11510371
0.64007761
1.1263138
1.2393379
0.91349624
0.34998251
0.020184904
0.0088121103
0.0087860224
0.008433031
0.036060724
0.48799398
1.1639605
1.7122959
1.838089
1.4703973
0.82446921
0.19329338
0.0094382389
0.0084320325
0.0086622067
0.15182863
0.69380122
1.2810482
1.848922
2.0461259
1.7161312
0.98453022
0.40668887
0.025957389
0.0081522713
0.012064308
0.25319801
0.70342289
1.139069
1.6491154
1.9311041
1.5771571
0.91971656
0.47937052
0.071477799
0.0080264918
0.02227269
0.29295463
0.65671843
0.99532835
1.2918532
1.366287
1.1534078
0.82638692
0.47867463
0.11874673
0.0085682834
0.036697133
0.30100208
0.5936101
0.83343272
0.99943983
1.03642
0.92724607
0.71982842
0.4532579
0.148648
0.010673524
0.052002586
0.29397105
0.52435294
0.68939656
0.7849079
0.80426996
0.74554461
0.6149333
0.41690897
0.16434867
0.015133862
0.065802332
0.27913492
0.45888941
0.5747623
0.63400142
0.64519595
0.6105409
0.52439838
0.37722104
0.17085124
0.022235579
0.077590492
0.26084271
0.40176322
0.48616698
0.52598661
0.53316715
0.51065176
0.45043283
0.33902546
0.17135602
0.031060114
0.086605006
0.2417636
0.35365607
0.41756348
0.44629074
0.45132969
0.43543069
0.39097162
0.30456269
0.16798872
0.040245396
0.09244961
0.22340395
0.31369845
0.36375705
0.38564879
0.38944018
0.3774651
0.34316232
0.27447952
0.16231157
0.048547659
0.095604242
0.20655285
0.28060778
0.32086084
0.33826388
0.34126973
0.3317957
0.30440935
0.24869232
0.15549956
0.055293587
0.096824642
0.19160228
0.25307336
0.28622002
0.30056863
0.30305924
0.29524333
0.27270316
0.22672313
0.14851509
0.060340165
0.097387085
0.17874914
0.23062378
0.25899854
0.27156381
0.27378456
0.26687713
0.24737342
0.2083628
0.1422856
0.06400667
0.019662214
0.019650791
0.019650615
0.019650574
0.019650552
0.019650545
0.019650556
0.019650584
0.019650633
0.019651264
0.019676748
0.016996651
0.016689165
0.016678155
0.016673924
0.016672192
0.016671902
0.01667298
0.016675663
0.016682
0.016700475
0.017000644
0.014888729
0.014657526
0.014644994
0.014636622
0.014632048
0.014631136
0.014634069
0.014640475
0.01465064
0.014663227
0.014888394
0.013235531
0.013049299
0.013037048
0.013024942
0.013017001
0.013015211
0.013020399
0.013030952
0.013043318
0.013053886
0.013235017
0.011912413
0.01175669
0.011741227
0.011724967
0.011713863
0.011711284
0.01171824
0.011733018
0.011749301
0.011762939
0.011912837
0.010840371
0.01070991
0.010693631
0.010678268
0.01067472
0.010675221
0.010671636
0.010685757
0.01070166
0.010718136
0.010842935
0.0099721886
0.0098733272
0.0098799676
0.0099019737
0.00988242
0.0099161084
0.0098365705
0.0099059415
0.0098725595
0.009879212
0.0099769404
0.0092845348
0.0092460597
0.0092946071
0.011999974
0.038317313
0.054526099
0.020870609
0.0096557582
0.0092937952
0.009231355
0.0092900465
0.0087671608
0.0088248605
0.013614691
0.18800091
0.48999781
0.56676463
0.35058343
0.058119841
0.0090808257
0.0087794451
0.0087690894
0.0083983225
0.0094470517
0.14789168
0.6100046
0.99288299
1.0816256
0.82508657
0.36807118
0.029840282
0.008473319
0.0083883633
0.0081121496
0.026584772
0.35598787
0.80178875
1.1268582
1.204505
0.9851315
0.5849426
0.14178127
0.00885733
0.0080853117
0.0078373429
0.077037116
0.4392445
0.78515006
1.0267714
1.1722635
0.92035546
0.62089554
0.24625775
0.013815247
0.0077822651
0.0077409802
0.1287563
0.44715076
0.72111807
0.90824224
0.95105885
0.82694024
0.59188244
0.2885562
0.027709325
0.0074704518
0.0081753905
0.1597176
0.42825132
0.64268931
0.77645616
0.8049063
0.72022938
0.54363999
0.2980044
0.046565729
0.0072157456
0.009827645
0.17469512
0.39732135
0.5604107
0.65280553
0.67132652
0.61517778
0.48711111
0.29187321
0.065239324
0.0071856101
0.01352186
0.18010276
0.36193756
0.4854066
0.5503496
0.56283316
0.52452993
0.43121561
0.27767926
0.080823062
0.0076378751
0.019769279
0.17931799
0.32698667
0.42166868
0.4689884
0.47783981
0.45049532
0.38084762
0.25978083
0.092931667
0.0090660903
0.027635669
0.17468645
0.29493459
0.36900287
0.40483521
0.41143132
0.39099438
0.33746724
0.24094944
0.10096361
0.01198147
0.035893246
0.16791507
0.26665937
0.32585256
0.35391546
0.35903434
0.34316313
0.30086711
0.22277178
0.10531108
0.016622727
0.043400941
0.16024404
0.24227402
0.29044608
0.31299338
0.31709239
0.30439851
0.27024772
0.20609356
0.10696065
0.022415614
0.049545202
0.15268773
0.22143867
0.26119592
0.2797378
0.2831129
0.27268608
0.2445824
0.19134761
0.10692526
0.028413571
0.054460312
0.14608386
0.20396527
0.2375414
0.25339091
0.25630388
0.24735268
0.22348184
0.17869922
0.10672153
0.034004958
0.019688016
0.019653413
0.01965068
0.019650629
0.019650603
0.019650598
0.019650614
0.019650643
0.019650813
0.019656676
0.017005187
0.016708201
0.016686966
0.016679705
0.01667698
0.016676603
0.016678194
0.016682438
0.016691088
0.016994324
0.014891066
0.014667578
0.014655766
0.014647433
0.014642717
0.014641857
0.014644871
0.014651309
0.014658307
0.014889218
0.013238151
0.01305746
0.013048068
0.013040087
0.013034114
0.013032758
0.013036852
0.013044203
0.013050189
0.013235917
0.011916414
0.011766796
0.011755474
0.011745237
0.011737264
0.011735313
0.011740658
0.011750271
0.011758843
0.011911563
0.01084576
0.01072238
0.010708965
0.010697735
0.010690116
0.010687157
0.010692868
0.010702663
0.010712664
0.010838031
0.0099781536
0.009883253
0.009874784
0.0098765549
0.0099058959
0.0098873516
0.0098842649
0.0098738807
0.0098732828
0.0099677554
0.0092873287
0.0092334293
0.0092580036
0.0092998728
0.0094797168
0.009586422
0.0093327021
0.0092950338
0.0092311119
0.0092780493
0.0087562604
0.0087698125
0.0088567781
0.010891606
0.040092351
0.055425946
0.020278338
0.0090818509
0.0088039522
0.0087616939
0.00835806
0.0084679457
0.01055711
0.094535845
0.28588152
0.33701978
0.1935539
0.029817523
0.008609994
0.0083997699
0.008035746
0.0082880681
0.041738717
0.28114035
0.50343399
0.55302795
0.40680845
0.14153147
0.011209961
0.008126878
0.0077230238
0.0090898518
0.11406425
0.37534349
0.55586543
0.59382623
0.47947108
0.24591861
0.027877163
0.0079230194
0.007397832
0.013138385
0.16969192
0.39511734
0.53927588
0.56947892
0.47877125
0.28825717
0.059322247
0.0080612813
0.0070815765
0.022260069
0.19680552
0.38564153
0.50144106
0.52533656
0.45333904
0.29773851
0.090838189
0.0091198291
0.0067988392
0.035328667
0.20699655
0.36311725
0.45429182
0.47266229
0.41695295
0.29164856
0.11309538
0.012262112
0.0065695576
0.049356945
0.20742848
0.33485822
0.40596705
0.41998866
0.37722336
0.27749779
0.12660355
0.018853065
0.0064909805
0.062089802
0.20207452
0.3055576
0.36128509
0.37209991
0.33899698
0.25963725
0.13376464
0.028641735
0.0066867446
0.072783197
0.1935651
0.27782422
0.32206586
0.33056329
0.30451584
0.24083433
0.13630421
0.039380418
0.0074508375
0.080659413
0.18363134
0.25280365
0.28849159
0.29530219
0.27442347
0.22267805
0.13564419
0.049231892
0.0092232445
0.085637737
0.17343815
0.23086759
0.26008588
0.26562968
0.24863316
0.2060174
0.13300397
0.057205796
0.012390925
0.088434838
0.16387753
0.21194908
0.23607868
0.24064033
0.22666405
0.19128419
0.12951062
0.063074548
0.017050142
0.090408322
0.15556368
0.19595789
0.21618038
0.22000923
0.20830489
0.1786446
0.12629382
0.067331923
0.019680974
0.019654002
0.019650948
0.01965076
0.019650756
0.019650783
0.019651274
0.019656665
0.019677705
0.017001506
0.016710589
0.016691612
0.016688356
0.016687202
0.016690793
0.016701015
0.016994462
0.017003212
0.014888029
0.014667718
0.014657646
0.014657028
0.014655811
0.014658659
0.014664213
0.014889481
0.014889667
0.013234431
0.013057562
0.013049274
0.013049415
0.013048211
0.013050296
0.013055334
0.013236218
0.013236083
0.011912381
0.011767429
0.011758046
0.011756995
0.011755342
0.011757802
0.011764802
0.01191235
0.011913489
0.010841816
0.010723596
0.010712319
0.010710248
0.010708442
0.01071088
0.010720231
0.010839472
0.010842236
0.0099742001
0.0098840187
0.009873271
0.0098742939
0.0098747939
0.0098734991
0.0098816655
0.0099694833
0.0099726789
0.0092833454
0.0092302863
0.0092330411
0.0092523777
0.0092590116
0.0092436559
0.0092339643
0.0092798865
0.009277294
0.0087531013
0.0087574688
0.0088092582
0.0088262667
0.0088647177
0.0088128251
0.0087819582
0.0087634482
0.0087391062
0.0083565166
0.0084413497
0.0086417824
0.011246917
0.013057171
0.0094458046
0.0084754878
0.008400665
0.0083318061
0.008036432
0.008188035
0.012671407
0.046547919
0.060878291
0.025938906
0.0088550933
0.0081270204
0.0080030411
0.0077250307
0.0084922748
0.034959818
0.11211188
0.13597227
0.071288388
0.013758291
0.0079215784
0.0076908964
0.0073983925
0.010742771
0.067520826
0.16232986
0.18596616
0.11838689
0.027506199
0.0080553847
0.0073712585
0.0070814228
0.01647945
0.09729621
0.18820213
0.20901759
0.14830547
0.046240455
0.0091017228
0.0070588313
0.0067959796
0.025742671
0.11801814
0.19858223
0.21638298
0.16403199
0.064863131
0.012218924
0.0067803645
0.0066138435
0.036984806
0.13039016
0.19994838
0.21487411
0.1705731
0.080448471
0.01876973
0.006557447
0.0066198237
0.048399549
0.13668403
0.19575205
0.20809263
0.17112238
0.092594198
0.028521185
0.0064652299
0.0070396926
0.058757248
0.13863857
0.1882882
0.19847945
0.16779125
0.10066989
0.039240223
0.0066227054
0.008318162
0.067492763
0.13753136
0.17920779
0.18767111
0.16214165
0.10505827
0.049090713
0.007253631
0.010904902
0.073798644
0.13450683
0.16963485
0.17671325
0.15535057
0.10674364
0.057075953
0.0087329116
0.014904649
0.077906382
0.1306293
0.16036654
0.16627264
0.14838283
0.10673864
0.062961542
0.011488312
0.019973259
0.080907702
0.12714957
0.15207279
0.1568791
0.14216665
0.10655861
0.06723099
0.015810344
0.01967633
0.019669549
0.019657065
0.019654738
0.019658583
0.019676753
0.017007764
0.017000323
0.016994067
0.016714046
0.016996012
0.017001102
0.014893983
0.014889836
0.014888294
0.014668412
0.014888957
0.014889241
0.013240026
0.013236974
0.013235265
0.013057815
0.013235582
0.013236309
0.011917514
0.011915524
0.011913032
0.011767215
0.011912583
0.011914626
0.010846382
0.010846692
0.010843531
0.010722128
0.010841379
0.01084514
0.0099777766
0.0099835608
0.009980896
0.00987957
0.0099755521
0.0099791559
0.0092839837
0.0093029484
0.0093046154
0.0092188296
0.009293936
0.0092923911
0.0087473878
0.0087936141
0.0088088039
0.0087348729
0.008788674
0.0087716268
0.008341959
0.0084298873
0.0084633563
0.0084007563
0.0084355727
0.0083915039
0.0080141159
0.008137353
0.008208059
0.0081135742
0.0081562707
0.00808869
0.0077018865
0.0078431986
0.0083243916
0.0082998489
0.0080305344
0.0077856582
0.0073815435
0.0076779256
0.0098580503
0.0099126276
0.0085657935
0.0074740768
0.0070696322
0.0079254968
0.013935312
0.013688908
0.010647949
0.0072170405
0.0067864122
0.0089983845
0.020567158
0.019672823
0.015072874
0.0071818375
0.0065543072
0.011294753
0.029384369
0.027359043
0.022129203
0.0076201828
0.0064127701
0.014973683
0.039155871
0.03583078
0.030915609
0.0090189831
0.0064992368
0.020097934
0.048492352
0.044282643
0.040079636
0.011891486
0.0070246597
0.026252026
0.0564027
0.052240472
0.04837473
0.016482824
0.008440631
0.032630412
0.062500968
0.058770324
0.055119946
0.022243566
0.011324712
0.038497063
0.066806988
0.063581346
0.060169835
0.028229777
0.016112611
0.04351573
0.069680932
0.066395633
0.063844156
0.033820278
0.01967633
0.019676757
0.017632043
0.017622674
0.019669555
0.019658576
0.017619972
0.017610214
0.019687544
0.017638482
0.017634441
0.019657053
0.019654731
0.017608089
0.017939237
0.019677415
0.017634587
0.017638473
0.019654721
0.019657057
0.017939321
0.017607863
0.019658573
0.019669546
0.017610614
0.017619881
0.019676754
0.019676326
0.01762277
0.017632078
0.015535805
0.033344102
0.020214522
0.036608244
0.042829034
0.06339621
0.045407724
0.066270561
0.021527027
0.024043218
0.025767319
0.06910112
0.065999593
0.071091144
0.079313716
0.019337279
0.025798581
0.024265067
0.066106232
0.069358348