/*--------------------------------*- C++ -*----------------------------------*\
| =========                 |                                                 |
| \\      /  F ield         | OpenFOAM: The Open Source CFD Toolbox           |
|  \\    /   O peration     | Version:  2406                                  |
|   \\  /    A nd           | Website:  www.openfoam.com                      |
|    \\/     M anipulation  |                                                 |
\*---------------------------------------------------------------------------*/
FoamFile
{
    version     2.0;
    format      ascii;
    arch        "LSB;label=32;scalar=64";
    class       volScalarField;
    location    "100";
    object      nut;
}
// * * * * * * * * * * * * * * * * * * * * * * * * * * * * * * * * * * * * * //

dimensions      [0 2 -1 0 0 0 0];

internalField   nonuniform List<scalar> 
71615
(
0.0019974608
0.0019974125
0.0019737105
0.0019735505
0.0019522677
0.0019521723
0.0019335917
0.0019335552
0.0019172853
0.0019172978
0.001903409
0.0019035224
0.0018926395
0.0018929607
0.0018865652
0.001887378
0.0018871505
0.0018889631
0.0018946796
0.0018982367
0.0019048358
0.001910151
0.0019105191
0.0019162846
0.0019094693
0.001914938
0.0019053696
0.0019137957
0.0019044853
0.0019242477
0.0019186144
0.0019809791
0.0019710124
0.0021217528
0.0021107628
0.002407529
0.002431166
0.0029219617
0.0030718281
0.0037420893
0.004136433
0.004875206
0.0055722562
0.0062587437
0.0019973523
0.0019971668
0.0019971249
0.0019971175
0.0019971292
0.0019972042
0.0019974277
0.0019735051
0.0019707239
0.0019706367
0.0019706143
0.0019706788
0.0019733857
0.001973536
0.0019521226
0.0019497167
0.0019497008
0.0019496952
0.0019497123
0.0019520385
0.0019521658
0.0019334602
0.0019313087
0.001931318
0.0019313068
0.0019313074
0.0019333715
0.0019335341
0.0019171833
0.0019153237
0.0019153597
0.0019153171
0.0019153288
0.0019170931
0.0019172743
0.0019033915
0.0019020406
0.0019021855
0.0019020827
0.0019020823
0.0019033141
0.0019034698
0.0018928055
0.0018926485
0.0018932225
0.0018930454
0.0018928796
0.0018928295
0.0018928468
0.0018870518
0.0018896017
0.0018916183
0.0018915222
0.0018904367
0.0018875692
0.0018869871
0.0018881579
0.0018967157
0.0019023452
0.0019045827
0.0018986923
0.0018902511
0.0018877802
0.0018962871
0.0019155828
0.0019187642
0.0019262225
0.0019127036
0.0019018971
0.0018953878
0.0019068314
0.001935241
0.0022446516
0.0024519241
0.002042234
0.0019169854
0.001905269
0.0019122004
0.0021691084
0.0040332981
0.0050819916
0.0028312163
0.00192953
0.001910399
0.0019106491
0.0029710713
0.0074269346
0.008899828
0.0050492147
0.0019821431
0.001908632
0.0019053094
0.0045823162
0.010566035
0.012185175
0.0078493928
0.0021682578
0.0019038935
0.0019152824
0.0066668051
0.013102073
0.015036573
0.010338586
0.0026483976
0.0019018503
0.0019610329
0.0086971476
0.015397613
0.017430118
0.012426487
0.0035542279
0.0019080609
0.0020844208
0.010488041
0.017481332
0.019435327
0.014408342
0.0048768264
0.001953352
0.0023408965
0.012187695
0.01927164
0.021115901
0.016268774
0.0064042684
0.0020770617
0.0028236967
0.013886616
0.02076029
0.022458177
0.017898883
0.0080304685
0.0023477986
0.0035771901
0.01544729
0.021973956
0.023494362
0.019290548
0.0096487284
0.0028839896
0.0045689078
0.016844218
0.022939001
0.024321923
0.020462389
0.011173618
0.0037569313
0.0058058991
0.018198491
0.02383053
0.025036326
0.021584535
0.012624672
0.0049706562
0.0019972939
0.0019971156
0.001997107
0.0019971069
0.0019971072
0.0019971069
0.0019971065
0.0019971284
0.0019973602
0.0019734243
0.0019705869
0.0019704708
0.0019704429
0.0019704443
0.0019704579
0.0019705122
0.001970681
0.0019734524
0.0019520487
0.0019496739
0.0019495703
0.0019495406
0.0019495386
0.001949555
0.0019496015
0.0019496771
0.0019520623
0.001933388
0.0019312719
0.0019311891
0.001931192
0.0019311888
0.0019311844
0.0019311955
0.001931257
0.0019333854
0.0019171012
0.0019152692
0.0019152612
0.0019153574
0.0019153593
0.0019152947
0.0019152183
0.0019152974
0.0019170885
0.0019033396
0.001902061
0.0019024436
0.0019029759
0.0019030254
0.0019026816
0.0019021773
0.0019021185
0.0019032695
0.0018929365
0.0018931632
0.0018950476
0.0018979324
0.0018982762
0.0018963003
0.0018939691
0.0018930337
0.0018926352
0.001887758
0.0018918718
0.0018988783
0.0019076524
0.0019078636
0.0019057514
0.0018953103
0.0018907824
0.0018867388
0.0018898947
0.0019037551
0.0019198705
0.0021144639
0.0022636751
0.0019791211
0.0019110159
0.0018992465
0.0018875164
0.0018996407
0.0019294828
0.0030966953
0.010430336
0.012923094
0.0065702327
0.0021115976
0.0019193557
0.0018952421
0.0019118886
0.0023451392
0.011737171
0.026694679
0.030550071
0.020017879
0.0052517639
0.0019502714
0.0019053699
0.0019183047
0.0047761913
0.021842513
0.037904209
0.041567234
0.031251184
0.01209219
0.0022053685
0.0019106342
0.0019206697
0.0086556981
0.0284743
0.043101971
0.0462663
0.037232715
0.018361998
0.0031482858
0.0019086718
0.0019308651
0.012457517
0.032236814
0.045079385
0.047819328
0.039984207
0.022893736
0.0051123863
0.0019040183
0.0019945359
0.015784466
0.034273904
0.045580196
0.047977101
0.041115994
0.025871504
0.007566968
0.001901213
0.002186183
0.018590093
0.035379676
0.045384396
0.047480168
0.041448979
0.027833541
0.0097962906
0.001920024
0.002611681
0.020771448
0.035959358
0.044832317
0.046671362
0.041354343
0.029184082
0.011791419
0.0019881528
0.0033460298
0.022421924
0.036209314
0.044114806
0.045744289
0.041024757
0.030108847
0.013753917
0.0021587446
0.0044239881
0.023686645
0.036247659
0.043346428
0.044805961
0.040576324
0.030731165
0.015605875
0.0025407698
0.0057449445
0.024691802
0.036175814
0.042601125
0.043917403
0.040096942
0.03115842
0.017234363
0.0032129109
0.0071901377
0.025549675
0.036104654
0.041928256
0.043111709
0.039665278
0.031515009
0.018619245
0.0041590545
0.008658798
0.026452086
0.036136171
0.04139607
0.042456333
0.039358426
0.031955952
0.019949347
0.0053700599
0.001997353
0.0019971152
0.0019971064
0.0019971065
0.0019971068
0.0019971069
0.0019971068
0.0019971065
0.0019971052
0.0019971328
0.0019973851
0.0019735203
0.0019705864
0.0019704271
0.0019703805
0.0019703813
0.0019703884
0.0019703902
0.001970404
0.0019704767
0.0019707103
0.0019736148
0.0019521736
0.0019496748
0.0019495023
0.001949439
0.0019494411
0.0019494503
0.0019494512
0.0019494734
0.0019495556
0.0019496886
0.0019522428
0.0019335622
0.0019312706
0.0019311043
0.0019311017
0.0019311582
0.0019311786
0.0019311395
0.0019311113
0.0019311371
0.0019312498
0.0019335858
0.001917355
0.001915256
0.0019151867
0.0019154457
0.001915726
0.0019158225
0.0019155969
0.0019153229
0.0019151542
0.0019152467
0.0019172966
0.00190359
0.0019020259
0.0019025979
0.0019040548
0.0019050842
0.0019049067
0.0019046017
0.0019032751
0.0019021919
0.0019019872
0.0019034372
0.001892973
0.0018931066
0.0018962617
0.0019068625
0.0019072399
0.0018850983
0.0019070195
0.0018998247
0.0018943942
0.0018926813
0.0018926453
0.0018871631
0.0018918048
0.0019046149
0.0019628555
0.0024587408
0.0028280123
0.0021063504
0.0019027217
0.0018973446
0.0018898105
0.0018864215
0.0018882417
0.0019038579
0.001991319
0.0074259717
0.023071611
0.0277264
0.015261934
0.0027562439
0.001910681
0.0018970521
0.001886515
0.0018963407
0.0019298124
0.0065200413
0.034374323
0.059935248
0.065811711
0.04916624
0.018692864
0.0023133257
0.0019151962
0.0018931339
0.001906891
0.0023503126
0.021162049
0.056330799
0.07974241
0.084810265
0.070251503
0.039427727
0.0073619369
0.0019326951
0.0019021746
0.0019122447
0.0048128802
0.033070525
0.064358126
0.083021295
0.086854382
0.075552283
0.050217856
0.015943366
0.0020803981
0.0019071901
0.0019106845
0.0087095537
0.039114559
0.065687832
0.081289868
0.084569065
0.075060212
0.053815589
0.022816451
0.0026472529
0.0019059276
0.0019053075
0.012523145
0.041680566
0.064684004
0.077957735
0.080710532
0.072688542
0.054473246
0.027178842
0.0039896336
0.0019016001
0.0019158501
0.015845818
0.04264877
0.062649336
0.07390892
0.076207557
0.06947697
0.053841889
0.029769147
0.0059761887
0.0018985784
0.0019629234
0.018639069
0.042807545
0.060251894
0.069875453
0.071819627
0.066112076
0.052625794
0.03137558
0.0080674073
0.0019037077
0.0020887379
0.020807219
0.04254907
0.057861747
0.066202762
0.067877685
0.062954357
0.051202194
0.032394285
0.0099327851
0.00192955
0.0023500829
0.022447916
0.042084569
0.055645883
0.062981389
0.064449969
0.060131243
0.049767453
0.033017002
0.011681497
0.0020168436
0.0028397301
0.023704493
0.041530799
0.053664263
0.060199547
0.061505692
0.057664029
0.048416474
0.033370754
0.013448767
0.0022258586
0.0035988691
0.024704788
0.040975562
0.051934423
0.05780917
0.058981318
0.055532984
0.047206035
0.033568996
0.015091094
0.0026699098
0.0045938245
0.025559002
0.040494552
0.050436408
0.055753743
0.056814708
0.053694622
0.046155269
0.033737524
0.01656316
0.0034789422
0.0058323099
0.026454865
0.040154716
0.049232594
0.054113574
0.055090217
0.0522216
0.045320324
0.03399757
0.017964754
0.0047256394
0.0019971671
0.0019971069
0.0019971062
0.0019971062
0.0019971059
0.0019971058
0.0019971059
0.0019971062
0.0019971063
0.0019971077
0.0019972647
0.0019707322
0.0019704643
0.0019703662
0.0019703429
0.0019703463
0.001970352
0.0019703533
0.0019703621
0.0019704011
0.0019705415
0.0019734176
0.0019497254
0.0019495494
0.0019494083
0.0019493728
0.0019493908
0.0019494038
0.0019493958
0.0019494006
0.0019494654
0.0019495995
0.0019520595
0.001931301
0.0019311349
0.0019310436
0.0019311063
0.0019312448
0.001931286
0.001931194
0.0019310782
0.0019310765
0.0019311546
0.0019334012
0.0019152824
0.0019151538
0.001915352
0.0019159222
0.0019167992
0.0019169615
0.0019163605
0.0019155953
0.0019152106
0.0019150978
0.0019171733
0.0019019491
0.0019022851
0.0019039383
0.0019067328
0.0019157778
0.0019165074
0.0019106025
0.0019049389
0.0019028837
0.0019018443
0.0019035469
0.0018925237
0.0018948536
0.0019067522
0.0019033344
0.0019916176
0.0020545617
0.001941988
0.0019071551
0.0018980036
0.0018930058
0.0018933995
0.0018894533
0.0018988248
0.0019640498
0.0049614671
0.016704745
0.021122005
0.010477018
0.0024148463
0.0019066144
0.0018924659
0.0018888226
0.0018966263
0.0019202521
0.0074893966
0.041405929
0.072677692
0.079839253
0.059260721
0.02224521
0.0022748056
0.0019078283
0.0018924482
0.0019156067
0.0031517686
0.034578654
0.08231789
0.11522647
0.12255352
0.10154587
0.059303942
0.013353567
0.0019570596
0.0019048723
0.0019362674
0.011891046
0.056506245
0.098762998
0.12661097
0.13301073
0.1149664
0.079225261
0.032250931
0.0027968427
0.0019192798
0.0021779991
0.022043788
0.064458605
0.097876965
0.1141916
0.12151218
0.10978846
0.082671177
0.043651652
0.006793531
0.0019291782
0.0030041846
0.028639865
0.065742966
0.093857577
0.11216173
0.11638152
0.10444677
0.081053632
0.048186869
0.01129569
0.0019651845
0.0046439322
0.032355619
0.064714996
0.088446421
0.1027027
0.10574713
0.096899392
0.077793801
0.049551626
0.015244264
0.0021027932
0.0067413269
0.034361082
0.062665726
0.082590575
0.09382861
0.096124308
0.089360167
0.073791639
0.049544079
0.018442499
0.0024396012
0.0087633773
0.035440436
0.060258539
0.077165202
0.086361582
0.08820099
0.08275296
0.069785759
0.048869824
0.020985004
0.003071259
0.010544931
0.035998219
0.057861355
0.072451377
0.080245567
0.081791548
0.077208347
0.066128994
0.047905847
0.022922151
0.0039501898
0.012238772
0.036231353
0.055640277
0.068445493
0.075233991
0.076576888
0.072598265
0.062919094
0.046851462
0.024382407
0.0050254294
0.013929267
0.03625729
0.053654872
0.06505869
0.071083312
0.072274501
0.068749138
0.060149744
0.04580949
0.025471313
0.0062579965
0.015479239
0.036176278
0.051922604
0.06218259
0.067600214
0.068672831
0.065503043
0.057774533
0.044847737
0.026318218
0.0075888983
0.016865979
0.036098004
0.050422717
0.059736328
0.064669747
0.065649007
0.062759907
0.055736265
0.044009514
0.027028572
0.0089595917
0.018209794
0.036123519
0.049217345
0.057810899
0.062406126
0.063322774
0.060624712
0.054112342
0.043353139
0.027803011
0.010331195
0.0019974563
0.001997125
0.0019971065
0.001997106
0.0019971055
0.0019971048
0.0019971044
0.0019971048
0.0019971055
0.001997106
0.0019971068
0.0019971622
0.001973701
0.0019706367
0.0019704228
0.0019703428
0.0019703249
0.001970329
0.001970333
0.0019703336
0.0019703401
0.0019703747
0.0019704883
0.0019733325
0.0019522648
0.0019496932
0.0019494962
0.0019493659
0.0019493472
0.0019493797
0.0019493956
0.0019493774
0.0019493659
0.0019494232
0.0019495707
0.0019519919
0.0019335959
0.0019312774
0.0019310994
0.0019310277
0.0019311691
0.0019313704
0.0019314043
0.0019312928
0.0019310976
0.001931055
0.0019311505
0.0019333268
0.0019173102
0.0019152522
0.0019151917
0.0019155236
0.0019166828
0.0019172729
0.0019167655
0.0019171717
0.0019159999
0.0019153124
0.0019151416
0.0019170857
0.0019034351
0.0019019987
0.0019027484
0.0019048151
0.0019156527
0.0019109976
0.0018991255
0.0019168297
0.0019078521
0.0019037145
0.0019021095
0.001903498
0.0018926587
0.0018930108
0.0018977172
0.0019064979
0.0019920908
0.0029203168
0.0035499313
0.0023006288
0.0019060413
0.0019062339
0.0018940582
0.0018935907
0.0018866
0.0018914708
0.0019066082
0.0024756139
0.016808339
0.041889808
0.048238122
0.030573258
0.0065650818
0.0019582492
0.0018956167
0.0018897661
0.0018872703
0.0019026533
0.0021230126
0.023346154
0.07289768
0.11049362
0.1187081
0.094690891
0.047648596
0.0069156107
0.0019048923
0.0018953572
0.0018949257
0.0019195617
0.010631467
0.060345302
0.11558879
0.15301185
0.16065396
0.13748343
0.089274697
0.031803057
0.0024360787
0.0019100205
0.0019051982
0.0022593145
0.02696788
0.079952224
0.11920813
0.15541811
0.16526345
0.14826343
0.10437067
0.053291265
0.008354918
0.0019316705
0.0019109435
0.0040955927
0.03809752
0.083088794
0.11417068
0.14138123
0.15532128
0.1394022
0.10226151
0.061691597
0.01643742
0.0020326094
0.0019098994
0.0075195666
0.043213826
0.081296861
0.11213229
0.13578169
0.14118134
0.12539182
0.097464223
0.063337789
0.02251666
0.0024556646
0.0019057959
0.010647472
0.045139045
0.07794332
0.10267441
0.11854953
0.12200159
0.11194018
0.091361514
0.062611069
0.026470516
0.0034441983
0.0019051319
0.013164174
0.045606715
0.073883099
0.093799211
0.10524127
0.10759369
0.10064624
0.084951868
0.060842969
0.029000727
0.0048228498
0.0019199144
0.01544584
0.045388143
0.069843053
0.086331982
0.095292149
0.09708102
0.091764203
0.079132234
0.058690538
0.030621756
0.0064378267
0.0019738158
0.017511867
0.044820479
0.066166389
0.080216457
0.087671303
0.089142963
0.08476384
0.074138232
0.056508323
0.031653895
0.0081801572
0.0021165342
0.019286041
0.044092567
0.062942717
0.075205759
0.081655162
0.082924904
0.079151361
0.069925716
0.054458416
0.032303464
0.0099414727
0.0024422092
0.020761977
0.043317058
0.060159791
0.071056201
0.07677296
0.07789975
0.074558033
0.066377699
0.052604782
0.032699717
0.011623216
0.0030900934
0.021964276
0.04256677
0.057769206
0.067574355
0.072727277
0.073745336
0.070732378
0.063369394
0.050970279
0.032933014
0.013161912
0.0041576839
0.022923041
0.041890366
0.055714002
0.064645107
0.069361144
0.070296073
0.067535104
0.0608144
0.049542616
0.033084532
0.014526263
0.0055908118
0.02380873
0.041355334
0.054073787
0.062382218
0.066814509
0.067697945
0.065095903
0.058810245
0.048388257
0.033275619
0.015746632
0.0019974149
0.0019971176
0.0019971064
0.0019971057
0.001997105
0.0019971043
0.0019971038
0.0019971043
0.0019971052
0.0019971056
0.0019971067
0.0019971382
0.0019735456
0.0019706165
0.0019704153
0.0019703375
0.0019703195
0.0019703277
0.0019703305
0.00197033
0.0019703375
0.0019703647
0.0019704642
0.0019707372
0.0019521792
0.0019496949
0.0019494839
0.0019493552
0.0019493387
0.0019493807
0.0019493942
0.0019493719
0.0019493613
0.001949407
0.0019495302
0.0019496724
0.001933574
0.0019312801
0.0019310878
0.0019310211
0.0019311757
0.0019313768
0.0019314384
0.0019312992
0.001931107
0.0019310424
0.0019311019
0.0019312136
0.0019173271
0.0019152313
0.0019151929
0.0019155907
0.0019167959
0.0019167149
0.0019171261
0.0019171656
0.0019161357
0.0019153381
0.0019151044
0.0019151579
0.0019035003
0.0019019389
0.0019028149
0.0019046959
0.0019164511
0.0018976131
0.0018866306
0.0019159284
0.0019088182
0.0019037279
0.0019021699
0.001901766
0.001892959
0.0018928995
0.0018981588
0.0018854292
0.0020575615
0.0035674225
0.0045465009
0.0025626778
0.001915795
0.0019026191
0.0018945155
0.0018921229
0.0018873934
0.001891476
0.0019081642
0.0028586734
0.021327203
0.048384598
0.05508043
0.036143047
0.0087782524
0.0019756607
0.0018967641
0.0018885029
0.0018890989
0.0019048287
0.0022787787
0.028058253
0.080186476
0.11889899
0.12721094
0.10265745
0.05390663
0.0090066095
0.0019119335
0.0018944153
0.00189849
0.0019274664
0.013122899
0.066243953
0.1229864
0.16084538
0.16782023
0.14534404
0.095976797
0.036557774
0.0027763648
0.0019108504
0.001910521
0.0024691731
0.030760442
0.084997577
0.12832263
0.1652937
0.17026584
0.15928402
0.11002097
0.057996415
0.010352001
0.0019224806
0.0019166276
0.0051344656
0.041661517
0.086851449
0.12142437
0.15521811
0.16080698
0.1537798
0.11212345
0.065456387
0.019226385
0.0020485905
0.0019152547
0.0089431169
0.046284562
0.08452526
0.11635757
0.14122924
0.1462153
0.13042213
0.10099792
0.066484561
0.025340782
0.0025027508
0.0019140869
0.01221006
0.047794106
0.080652618
0.10570496
0.12199406
0.12547583
0.11518115
0.094171681
0.065305585
0.02909915
0.0034723214
0.001925052
0.015042528
0.047929487
0.07613921
0.096067621
0.10756573
0.10992373
0.1029311
0.087196292
0.063151528
0.031369377
0.0049059721
0.0019824313
0.017420048
0.047420196
0.071745987
0.088139384
0.097047904
0.098823809
0.093533542
0.080980811
0.060678033
0.032726607
0.0065437197
0.0021240658
0.019410996
0.046604635
0.067802795
0.081730081
0.089109726
0.090564167
0.086229113
0.075709002
0.058236187
0.033529338
0.008113145
0.0024103734
0.021080079
0.045674494
0.06437621
0.076517738
0.082893188
0.084146736
0.080416748
0.071294583
0.055978834
0.033995729
0.0096057806
0.0029241376
0.022413835
0.044735385
0.061434321
0.072218495
0.077870024
0.078982829
0.075679241
0.067591679
0.053958764
0.034235814
0.01114204
0.0037409977
0.023444362
0.043847376
0.05891292
0.068620179
0.073717652
0.074723933
0.071743126
0.064459331
0.052185293
0.034325857
0.012629087
0.0048677978
0.024266516
0.043042822
0.056749355
0.065599514
0.070270255
0.071195548
0.06846059
0.061804535
0.050636662
0.034338188
0.013999792
0.0062428127
0.02497772
0.04238826
0.055026927
0.0632753
0.067673276
0.068549282
0.06596672
0.059729455
0.04938254
0.034374902
0.015169198
0.0019971294
0.001997106
0.0019971056
0.0019971053
0.0019971043
0.0019971039
0.0019971043
0.0019971053
0.0019971055
0.0019971067
0.0019971745
0.0019706813
0.0019704333
0.0019703506
0.0019703352
0.0019703328
0.0019703329
0.001970336
0.0019703485
0.0019703751
0.0019705046
0.0019733482
0.0019497182
0.0019495135
0.0019493819
0.0019493599
0.0019493788
0.001949385
0.0019493762
0.0019493824
0.0019494268
0.0019495369
0.0019519666
0.001931299
0.0019311139
0.0019310341
0.0019311421
0.0019313058
0.001931331
0.0019312341
0.0019310955
0.0019310522
0.0019310595
0.0019332639
0.0019152705
0.0019151841
0.0019154561
0.0019163034
0.0019172061
0.0019172107
0.0019168559
0.0019158045
0.0019152645
0.0019149941
0.0019169295
0.0019019638
0.0019025505
0.0019044638
0.001910609
0.001916868
0.0019159459
0.0019160902
0.0019059946
0.0019033427
0.0019018595
0.0019031975
0.0018927556
0.0018962221
0.0019069117
0.0019446359
0.0023094143
0.0025694362
0.0020545163
0.0018962149
0.0019008759
0.0018935547
0.0018930341
0.0018903849
0.0019056755
0.0021157434
0.010647441
0.030794104
0.036258947
0.021128283
0.0039992591
0.0019108981
0.0018946462
0.0018886206
0.001898842
0.0019826308
0.01554857
0.059680906
0.095029597
0.10281175
0.080005822
0.036728399
0.0039597937
0.0019053564
0.0018930448
0.0019132099
0.0067042594
0.04957043
0.10200659
0.13781963
0.14547431
0.1227058
0.076977867
0.023681292
0.0021213931
0.0019068751
0.0020468532
0.020199086
0.070489667
0.11524217
0.1485691
0.15935789
0.14123634
0.094171042
0.044675702
0.0052852397
0.0019244169
0.0028492363
0.031350406
0.075623734
0.10983239
0.13957458
0.15378063
0.13601783
0.094184981
0.0545063
0.01184354
0.0019706843
0.0050727789
0.037256415
0.075048307
0.1044631
0.12546425
0.13043749
0.11620494
0.090716018
0.057312428
0.017671659
0.0021800739
0.0078619427
0.039950339
0.072639478
0.096869257
0.11193254
0.11517585
0.10565475
0.085853387
0.057418503
0.021784572
0.0027639063
0.010334064
0.041050623
0.069406585
0.089302927
0.1006073
0.10291154
0.096056413
0.08047376
0.056360725
0.02471398
0.0038425087
0.012404445
0.0413694
0.066030649
0.082683775
0.091714649
0.093508602
0.088146526
0.075407006
0.054802631
0.026740661
0.0053095347
0.014371123
0.041270079
0.062868989
0.077135571
0.084711781
0.086202905
0.081746002
0.070955849
0.053106538
0.028152585
0.0069517219
0.016220443
0.040939202
0.06004603
0.07252593
0.079100029
0.080390957
0.076538613
0.067144432
0.051451253
0.029139086
0.0086526588
0.017843341
0.040491337
0.057580967
0.068679078
0.074508699
0.075654541
0.072242614
0.063906076
0.049917789
0.029820489
0.010328454
0.019230061
0.040013627
0.055452918
0.065436027
0.07068551
0.071719751
0.068646879
0.061148034
0.048549397
0.030298652
0.01190039
0.020398973
0.03958421
0.053617809
0.062696127
0.067490671
0.068438502
0.065628588
0.058795773
0.047354653
0.030683374
0.01332506
0.021516833
0.039279203
0.052147099
0.060562935
0.06505289
0.06594542
0.063306645
0.056937853
0.046394026
0.031125251
0.014625707
0.0019972044
0.0019971061
0.0019971058
0.0019971056
0.0019971054
0.0019971052
0.0019971054
0.0019971056
0.0019971056
0.0019971101
0.0019973253
0.001973385
0.001970508
0.0019703942
0.0019703663
0.0019703657
0.0019703685
0.0019703752
0.001970382
0.0019704221
0.0019706019
0.0019734137
0.0019520458
0.0019495903
0.00194946
0.0019494157
0.0019494177
0.001949423
0.0019494324
0.0019494472
0.0019495029
0.0019496178
0.0019520322
0.0019333846
0.0019311679
0.0019310966
0.00193112
0.0019311966
0.0019312147
0.0019311749
0.0019311258
0.0019311176
0.0019311772
0.0019333664
0.0019170671
0.0019151612
0.001915313
0.0019156818
0.001916175
0.0019163129
0.0019159229
0.0019155026
0.0019152058
0.0019151619
0.0019170895
0.0019032059
0.0019021027
0.0019032993
0.0019051183
0.0019081733
0.0019091411
0.0019061508
0.0019042523
0.0019025518
0.0019019627
0.0019033729
0.0018926525
0.0018939387
0.0018999703
0.0019071727
0.0019068136
0.0019157445
0.001896467
0.0019074204
0.001896028
0.0018930268
0.0018929794
0.0018873968
0.0018954266
0.0019039491
0.0024366556
0.0066898621
0.0088584566
0.0040111516
0.00198904
0.0019050243
0.0018913182
0.0018877247
0.0018902198
0.0019083176
0.0027918955
0.022605118
0.048020777
0.054098246
0.036769109
0.0090764742
0.0019682459
0.0019014743
0.0018899972
0.0019020837
0.0021217477
0.019014265
0.059761013
0.089665421
0.096154804
0.076993295
0.039194436
0.0056834289
0.0019188576
0.0019001582
0.0019173392
0.005347725
0.039742629
0.079555459
0.10461528
0.11009846
0.094157997
0.060993109
0.018786597
0.0020842759
0.0019129552
0.0019301687
0.012210093
0.050406797
0.082832473
0.10234926
0.11214005
0.094164692
0.068097256
0.030408468
0.0032030998
0.0019199676
0.0019837511
0.018437147
0.05390363
0.081128112
0.097508307
0.10099703
0.090694102
0.068794091
0.036685296
0.0060323047
0.0019221796
0.0021719876
0.022933401
0.054499706
0.077815642
0.091366892
0.094157499
0.085831583
0.067340334
0.039540249
0.009261567
0.0019343212
0.0026543419
0.02587566
0.053830166
0.073778708
0.084930714
0.087169587
0.08045052
0.064922592
0.040746272
0.01194142
0.0019998751
0.0035596939
0.027815085
0.052590928
0.069751465
0.079096024
0.08094666
0.075382787
0.062207182
0.041126339
0.014237627
0.0021933569
0.0048757132
0.029145753
0.051153752
0.066082243
0.074094071
0.075671504
0.070931855
0.05956207
0.041064476
0.016428156
0.0026237873
0.0063927681
0.030057643
0.049710958
0.062865358
0.069877671
0.071256182
0.067121452
0.057143457
0.040762672
0.018353959
0.003356112
0.0080069914
0.030673544
0.048355317
0.060092301
0.066328093
0.067553676
0.06388445
0.055000832
0.040342562
0.019952081
0.0043753365
0.0096145518
0.031097843
0.047142376
0.057715402
0.063319608
0.064422394
0.061127816
0.05314061
0.039896487
0.021251019
0.0056142915
0.011131097
0.031452243
0.046090558
0.055676785
0.060765136
0.061768899
0.058776815
0.051533216
0.039508799
0.022326236
0.0069742952
0.01257491
0.031891647
0.045254712
0.05405225
0.058760984
0.059694604
0.05691982
0.050242778
0.039251992
0.023437903
0.008399148
0.0019974285
0.0019971281
0.0019971055
0.0019971062
0.0019971059
0.0019971059
0.0019971062
0.0019971062
0.0019971064
0.0019971588
0.001973548
0.0019706865
0.0019704979
0.0019704286
0.001970409
0.0019704128
0.0019704325
0.0019704542
0.0019705139
0.0019733147
0.0019521887
0.0019496905
0.0019495947
0.001949521
0.0019494948
0.0019495
0.0019495303
0.0019495607
0.0019495895
0.0019520007
0.001933568
0.0019312683
0.0019312027
0.0019311837
0.0019311924
0.0019312003
0.001931213
0.0019312041
0.001931179
0.0019333233
0.0019173214
0.0019152777
0.0019152536
0.0019154002
0.0019155522
0.0019155884
0.0019154931
0.0019153144
0.0019151734
0.0019169297
0.0019034978
0.0019020502
0.0019023433
0.0019031873
0.0019040677
0.001904094
0.0019036375
0.0019026781
0.0019019591
0.0019029813
0.0018928571
0.0018929569
0.0018946455
0.0018983374
0.0019065202
0.0019030045
0.0019012209
0.0018962019
0.0018931625
0.0018922868
0.0018870354
0.0018908504
0.0018978297
0.0019034804
0.0019604663
0.0019769909
0.0019114799
0.0019051995
0.0018923815
0.0018868987
0.001887928
0.0018996546
0.0019107946
0.0022963789
0.0070561545
0.0090909853
0.0039756632
0.001968384
0.0019058884
0.001889977
0.0018956521
0.0019199539
0.0023336267
0.013641264
0.03213952
0.036716425
0.023693579
0.0056795927
0.0019436303
0.0019028549
0.0019056414
0.0019519234
0.0075251224
0.032611231
0.053597541
0.058112345
0.044654983
0.01875663
0.0025602511
0.0019199058
0.0019107919
0.0022175368
0.016173996
0.043934745
0.061889286
0.065511814
0.054466616
0.03036195
0.005653603
0.0019479278
0.0019090023
0.003187412
0.02301232
0.048380168
0.063458329
0.066502661
0.057262096
0.03663964
0.010042927
0.0020566715
0.0019042828
0.0051759339
0.027317906
0.049681777
0.062681446
0.06530266
0.057364834
0.039491763
0.01418343
0.0023936072
0.0019021896
0.0076301776
0.029863517
0.04962641
0.060878808
0.063134235
0.056307446
0.040699912
0.017668483
0.0032249149
0.0019090544
0.0098450041
0.031436049
0.048916882
0.058702041
0.060651281
0.054751564
0.041085974
0.020369931
0.0047285131
0.0019549603
0.011825503
0.032427226
0.047926605
0.056502629
0.058203619
0.053059151
0.041029698
0.02237972
0.00666024
0.002079787
0.013776679
0.0330289
0.0468527
0.054440754
0.055942993
0.051407843
0.040732186
0.02390259
0.0086053025
0.0023515637
0.015615356
0.033366624
0.04579642
0.052578835
0.053921317
0.049877997
0.040315794
0.025065286
0.01045283
0.002887192
0.017231372
0.033552716
0.044824196
0.050938578
0.052147266
0.048512778
0.039873266
0.025976825
0.012177276
0.0037564049
0.01860499
0.033712019
0.043978308
0.049506871
0.050598651
0.047320722
0.039488275
0.026754856
0.013741945
0.0049627965
0.019925605
0.033964363
0.043315686
0.048349111
0.049344425
0.046362164
0.03923328
0.027569841
0.015176556
0.00199736
0.0019971331
0.0019971082
0.0019971073
0.0019971073
0.0019971077
0.0019971107
0.0019971586
0.0019973338
0.0019734411
0.0019707227
0.001970561
0.0019705205
0.0019705126
0.0019705578
0.0019706409
0.0019733294
0.0019735117
0.0019520455
0.0019497202
0.001949643
0.0019496333
0.0019496229
0.001949647
0.0019497004
0.0019520255
0.0019521436
0.0019333842
0.0019313222
0.0019312512
0.0019312717
0.0019312569
0.0019312424
0.0019313143
0.0019333551
0.0019334896
0.001917114
0.0019153652
0.001915282
0.0019153555
0.0019153344
0.0019152583
0.0019153591
0.00191701
0.0019171721
0.0019032951
0.0019021568
0.0019021433
0.0019024402
0.001902475
0.0019021872
0.001902209
0.0019031368
0.0019032789
0.0018926471
0.0018929555
0.0018934318
0.0018945077
0.0018949305
0.0018939222
0.0018933379
0.001892489
0.0018924108
0.0018868115
0.0018903055
0.0018930912
0.0018960679
0.0018972815
0.0018950218
0.0018916718
0.0018871308
0.0018860333
0.0018877855
0.0018978063
0.0019085044
0.0019060818
0.0019126458
0.0019052919
0.001901837
0.0018902156
0.0018860066
0.0018956861
0.0019161565
0.0019622973
0.0024589145
0.0027927206
0.0021226956
0.0019191985
0.0019029962
0.0018924949
0.0019059315
0.0019342412
0.0028384342
0.0085035027
0.01041355
0.00528113
0.0020836803
0.0019199466
0.0019015229
0.0019112186
0.0020900712
0.00693986
0.016628491
0.019285582
0.01181533
0.0031913611
0.0019476464
0.0019065944
0.0019092036
0.0026819487
0.011485325
0.022687793
0.02538124
0.017613661
0.0059963595
0.0020552613
0.0019054077
0.0019046115
0.0040628279
0.015425979
0.026603894
0.029122616
0.021724956
0.00921512
0.0023894132
0.0019009551
0.0019018712
0.0060732042
0.01859772
0.029099765
0.031377228
0.024655715
0.011891923
0.0032153067
0.0018994716
0.0019219977
0.0081584063
0.021106266
0.030692433
0.0327222
0.026683466
0.01418317
0.0047120267
0.0019078935
0.0019926163
0.010011002
0.023012624
0.031702579
0.033516042
0.028098132
0.016372989
0.0066393949
0.0019503427
0.0021673832
0.011754104
0.024449035
0.032334828
0.033976443
0.02908668
0.018301897
0.0085825089
0.00206303
0.0025559362
0.013511438
0.025519321
0.032716978
0.034212437
0.029770881
0.019905037
0.010429365
0.0023135294
0.003232589
0.015139809
0.026351367
0.032938455
0.034299439
0.030252313
0.02120973
0.012154375
0.0027863752
0.0041798402
0.016597747
0.027048244
0.033080825
0.0343094
0.030640053
0.022287523
0.013720523
0.0035673752
0.0053888947
0.017984556
0.027809678
0.033264358
0.034344067
0.031084171
0.023400993
0.015156047
0.0046930489
0.0019973901
0.0019972648
0.0019971625
0.0019971388
0.0019971748
0.0019973256
0.0019736168
0.0019734241
0.0019733526
0.0019707673
0.0019733938
0.0019734431
0.001952241
0.0019520728
0.001952034
0.0019497424
0.0019520781
0.0019520968
0.0019335916
0.0019334532
0.0019334061
0.0019313313
0.0019334448
0.0019334796
0.0019173239
0.0019172891
0.0019172307
0.0019153291
0.0019172007
0.0019172667
0.0019034896
0.001903757
0.0019037332
0.0019019787
0.0019035119
0.0019036169
0.0018927744