/*--------------------------------*- C++ -*----------------------------------*\
| =========                 |                                                 |
| \\      /  F ield         | OpenFOAM: The Open Source CFD Toolbox           |
|  \\    /   O peration     | Version:  2406                                  |
|   \\  /    A nd           | Website:  www.openfoam.com                      |
|    \\/     M anipulation  |                                                 |
\*---------------------------------------------------------------------------*/
FoamFile
{
    version     2.0;
    format      ascii;
    arch        "LSB;label=32;scalar=64";
    class       volScalarField;
    location    "100";
    object      omega;
}
// * * * * * * * * * * * * * * * * * * * * * * * * * * * * * * * * * * * * * //

dimensions      [0 0 -1 0 0 0 0];

internalField   nonuniform List<scalar> 
71615
(
9.8512163
9.856375
8.6191848
8.6176928
7.6297436
7.627845
6.8477117
6.846152
6.2157311
6.2145081
5.6978518
5.6970126
5.270854
5.2705216
4.9201841
4.9208212
4.6357334
4.6381752
4.4062782
4.4116958
4.2142669
4.2224766
4.0402153
4.0487973
3.8750304
3.881671
3.7196968
3.7244841
3.5760112
3.580075
3.443655
3.4497688
3.3234552
3.3334938
3.2269532
3.2536168
3.1712419
3.2304901
3.1935878
3.2665395
3.297969
3.3488584
3.4345369
3.4445241
9.8530255
9.8429692
9.8406164
9.8402204
9.8408668
9.8448677
9.8566624
8.6163095
8.4795344
8.4747198
8.4730781
8.4763159
8.6129502
8.6165251
7.6281028
7.523393
7.5211233
7.5198286
7.5216817
7.6272387
7.6278279
6.8464812
6.7614134
6.7596938
6.7583815
6.7600192
6.8457782
6.8464199
6.2149139
6.1440736
6.1421338
6.1405772
6.1425841
6.2139736
6.2150488
5.6975091
5.6376886
5.6352503
5.6333102
5.6359204
5.6961013
5.6977506
5.2711098
5.2209805
5.2183642
5.2159604
5.2190702
5.2692117
5.271407
4.9212036
4.8814256
4.880155
4.8775505
4.8802849
4.9194183
4.9214263
4.637772
4.6119866
4.6170414
4.6143106
4.6147222
4.6379718
4.6375417
4.4093392
4.4003353
4.422204
4.423372
4.4065326
4.4146398
4.4083135
4.2178866
4.2319766
4.2897089
4.3444429
4.2299519
4.2298764
4.2158293
4.0432947
4.0719521
4.4467886
4.6293623
4.2294888
4.0592744
4.0407388
3.8765188
4.0431442
4.7843801
5.1612564
4.3848551
3.900886
3.8742176
3.7199786
4.1065894
5.2332982
5.6542088
4.6613312
3.7622802
3.717759
3.5761753
4.2845649
5.5830396
5.8730427
5.0244291
3.6998972
3.5731921
3.446784
4.5611777
5.7146028
5.8866441
5.2959646
3.7947759
3.440217
3.3316035
4.8243656
5.6648459
5.754095
5.389777
4.0510488
3.3191011
3.2699837
4.9644864
5.4983026
5.5374848
5.3303868
4.3200904
3.2136902
3.2789459
4.9544965
5.2709181
5.289488
5.1733272
4.4801652
3.166567
3.3823364
4.838403
5.0209529
5.0368038
4.9648787
4.5111196
3.1923741
3.5458328
4.6643678
4.7752678
4.7848535
4.7409365
4.4475707
3.2968033
3.6601572
4.4696234
4.5390255
4.5428341
4.5209357
4.3269218
3.4343518
9.8498601
9.8401379
9.8395909
9.8395705
9.839575
9.8395735
9.8396347
9.8408386
9.8534948
8.6140949
8.4718003
8.4674786
8.4656854
8.4653888
8.4663586
8.4694882
8.4783534
8.6152041
7.6268583
7.5194787
7.5165086
7.5142422
7.5137385
7.5151892
7.5182969
7.523008
7.6269483
6.8452883
6.7584156
6.7556837
6.7533643
6.7527572
6.7543565
6.7572899
6.7610877
6.8452387
6.2136819
6.1407979
6.1367074
6.1333573
6.1324507
6.1347618
6.1388949
6.1437513
6.2136774
5.6963036
5.6336932
5.627693
5.622798
5.6214681
5.6248156
5.630722
5.6374775
5.6963208
5.2702329
5.216616
5.2100746
5.2043598
5.2030832
5.2067121
5.2131466
5.2212434
5.2699627
4.9213692
4.8786726
4.8793528
4.8787741
4.8831348
4.8782739
4.8776545
4.8830559
4.9199484
4.6396896
4.6169674
4.6331225
4.6622824
4.735914
4.6156975
4.623328
4.6158095
4.6361282
4.4138165
4.4241056
4.7356142
6.074544
6.5430648
5.3487122
4.4480247
4.409328
4.4072806
4.2248785
4.3218901
6.3079415
8.0746987
8.3457635
7.4762604
4.9471854
4.24421
4.2154349
4.051674
4.6615067
7.4827201
8.3033985
8.4173543
8.046229
6.2724573
4.0949478
4.0407964
3.8850382
5.4610565
7.5551555
7.993829
8.069227
7.8374462
6.9545565
4.1129274
3.8740824
3.7290428
6.0829187
7.3093182
7.6304225
7.6859108
7.5106457
6.9433872
4.2862145
3.7170213
3.5916007
6.2378449
6.9971953
7.2239815
7.2599175
7.1403344
6.7340023
4.6106909
3.5722821
3.4824288
6.1037305
6.6382086
6.7816991
6.8025155
6.7299966
6.4604743
4.9932653
3.4399625
3.4663378
5.8846817
6.2523766
6.3347581
6.3448097
6.3062702
6.1392612
5.233428
3.3209735
3.6252166
5.6361604
5.8667482
5.9065075
5.908962
5.8938757
5.8000465
5.2698233
3.2445362
3.8940732
5.3693655
5.4993512
5.5093518
5.5065669
5.5077634
5.4643538
5.1549604
3.2480475
4.1115461
5.0944239
5.1583377
5.1480152
5.1419223
5.1540555
5.1446023
4.9612573
3.3632883
4.1924527
4.8254794
4.8462875
4.8227067
4.8147533
4.8335924
4.8475148
4.7459278
3.5547551
4.1605729
4.5721178
4.5629312
4.5313212
4.52253
4.5449145
4.5745426
4.5309141
3.6966947
9.8530246
9.8401354
9.8395563
9.8395412
9.8395336
9.8395322
9.8395363
9.8395485
9.8395796
9.8411062
9.8509408
8.6163421
8.4717889
8.4659292
8.4633986
8.4624093
8.4622477
8.4628074
8.4644059
8.4683451
8.4793878
8.6174961
7.6282187
7.5194842
7.5146752
7.5105321
7.5082671
7.5078132
7.5091962
7.5123742
7.5172581
7.5229126
7.6291032
6.8467036
6.7584162
6.7538506
6.7485726
6.7448185
6.7439787
6.7463834
6.7511613
6.7563313
6.7607933
6.8472887
6.2152645
6.1407693
6.1341301
6.1264179
6.1205439
6.1191209
6.1229908
6.130238
6.1376642
6.1434862
6.2155864
5.6978649
5.6336209
5.624093
5.6130863
5.6050299
5.6028482
5.6082387
5.6184686
5.6291376
5.6373248
5.6980097
5.2713579
5.2165122
5.2061982
5.1942165
5.191186
5.1969375
5.1925999
5.1999639
5.2115876
5.2210324
5.2712282
4.9213266
4.8785765
4.8791448
4.8430067
4.9181844
5.0014219
4.8717737
4.881109
4.8775407
4.8821437
4.920499
4.6378581
4.6169553
4.6278071
5.8878406
8.3051984
8.7518866
7.3531717
4.8617036
4.6339996
4.6133605
4.6353196
4.4093933
4.4243114
5.5374763
9.0977658
10.181905
10.359654
9.803439
7.7231431
4.5156234
4.4039247
4.4043725
4.2179751
4.3240537
7.8389478
9.4466849
10.043471
10.170174
9.8005418
8.9188653
5.4992064
4.2311848
4.2105543
4.04338
4.6722971
8.2028084
9.012517
9.4441662
9.5364513
9.2599947
8.679144
7.0064937
4.0599333
4.0354769
3.8765782
5.4826725
7.9273389
8.5217152
8.8609439
8.9354009
8.7139274
8.2633985
7.3419634
3.9975179
3.8700932
3.7200322
6.0993786
7.5853321
8.0161137
8.2368929
8.2803062
8.1425043
7.830272
7.1775037
4.0412656
3.7148932
3.576262
6.2472802
7.1983769
7.4693863
7.5774022
7.5945603
7.5321126
7.3584291
6.9089414
4.2158419
3.5712716
3.4467275
6.1103295
6.7751191
6.9156946
6.9436243
6.9437762
6.932275
6.8641316
6.5801824
4.5037275
3.4387059
3.3325311
5.8904364
6.3399213
6.3893145
6.3678818
6.3583817
6.3770505
6.3779576
6.2166221
4.8061179
3.3160867
3.2724513
5.6408153
5.9174674
5.9078401
5.8587078
5.8442901
5.8791828
5.921544
5.8480938
4.9767125
3.2087918
3.2838496
5.3731603
5.5232801
5.4766616
5.413355
5.3967846
5.4394683
5.5052607
5.4931811
4.9791385
3.1302529
3.389983
5.0972396
5.1635711
5.0944244
5.0248382
5.0076399
5.0533295
5.1314924
5.1605668
4.862365
3.1193607
3.5539076
4.8276017
4.8387065
4.7564068
4.6851462
4.6681705
4.7141265
4.7979519
4.853912
4.6842759
3.2008734
3.6666172
4.5738767
4.5466723
4.4587994
4.3896999
4.3736727
4.4176033
4.5015266
4.57409
4.4903852
3.3535491
9.8429702
9.8395905
9.8395403
9.8395237
9.8395151
9.839513
9.8395168
9.8395287
9.8395518
9.8396996
9.8482422
8.4795525
8.4674562
8.463357
8.461579
8.4607664
8.4606212
8.4611069
8.4623398
8.4649419
8.4704362
8.6146084
7.523399
7.5164468
7.5104537
7.5062751
7.5038412
7.5033443
7.5048587
7.5081859
7.5132309
7.5180247
7.6276633
6.7613647
6.7555432
6.7484388
6.7412699
6.736407
6.7353415
6.7384424
6.7446957
6.7521749
6.7567091
6.8461524
6.1439445
6.1364626
6.1262233
6.1147628
6.1062757
6.1043949
6.1097715
6.120387
6.1316719
6.1387273
6.2145198
5.6374719
5.6273788
5.6128744
5.596255
5.5839487
5.5817548
5.5877674
5.6047768
5.6204875
5.6312064
5.6970953
5.2207428
5.2097561
5.1940786
5.1808968
5.1474263
5.1455331
5.1291581
5.1911727
5.2022173
5.2138512
5.2710802
4.8812086
4.8792653
4.8435125
5.3654081
7.6230337
8.124323
6.5366492
4.9201654
4.8848089
4.8764301
4.9228747
4.6119523
4.6334759
5.9063415
9.8197651
11.171852
11.391195
10.690746
8.2682689
4.7343299
4.6149863
4.6434819
4.4007823
4.7454247
9.1168672
10.846746
11.738976
11.938837
11.361965
10.168124
6.8708645
4.4062409
4.4218378
4.2330547
6.3481228
9.4603352
10.565364
11.444517
11.664853
11.043544
10.034628
8.5803876
4.4517779
4.2358575
4.0749464
7.5107975
9.0233724
9.8584505
10.469247
10.756911
10.305601
9.4362591
8.5116587
5.00199
4.0611145
4.0506537
7.5719433
8.5297514
9.1816168
9.7509273
9.8956353
9.4805199
8.8524572
8.1392898
5.8344889
3.8981798
4.1193465
7.322447
8.0218926
8.4239793
8.6977794
8.7580732
8.5728441
8.2314468
7.7389111
6.2737609
3.7480898
4.3028236
7.006622
7.4736835
7.6549771
7.7368699
7.7504229
7.6991992
7.5753237
7.2979583
6.3214264
3.6481423
4.58311
6.6453997
6.9190548
6.9518069
6.9286807
6.9189314
6.9369363
6.9437437
6.8301728
6.1575815
3.62008
4.8440028
6.2583051
6.3920663
6.336979
6.261709
6.2413581
6.2921762
6.369215
6.3632421
5.9221064
3.7248066
4.9794799
5.8717023
5.9101635
5.8075496
5.7093237
5.6849073
5.7493293
5.8604939
5.9197429
5.6562718
3.9310001
4.9649488
5.5034965
5.4786566
5.352802
5.2470395
5.2217898
5.2900503
5.4150933
5.5119364
5.3779131
4.1329365
4.8458105
5.161846
5.0961567
4.9608901
4.855449
4.8309058
4.8981883
5.0262616
5.1436638
5.0953479
4.248818
4.6698779
4.8493015
4.7579209
4.6211619
4.5199279
4.496783
4.5608112
4.6861434
4.8136138
4.8221795
4.2572448
4.4743827
4.5655428
4.4601306
4.3286761
4.2351951
4.2141163
4.2727809
4.390266
4.5190018
4.5660185
4.1820563
9.8511939
9.840617
9.8395691
9.8395311
9.8395138
9.8395044
9.8395012
9.8395056
9.8395176
9.8395406
9.83961
9.8424948
8.6191321
8.4747164
8.4656273
8.4623
8.460705
8.459913
8.4597622
8.460246
8.4614049
8.4636251
8.4689245
8.6117207
7.6297114
7.5210925
7.5141282
7.5080827
7.5037312
7.5010982
7.5005506
7.5022063
7.5057489
7.5108788
7.517708
7.6269729
6.8476987
6.7595738
6.753145
6.7445253
6.7362303
6.7305678
6.7293073
6.7329477
6.7402043
6.7489943
6.7566742
6.8454133
6.2157757
6.1418721
6.1330044
6.1201278
6.1060232
6.0964719
6.0940511
6.1003068
6.1128803
6.1269395
6.1379126
6.2134059
5.6979258
5.6348725
5.6223714
5.6045848
5.5836726
5.5867951
5.5816027
5.5793668
5.5938936
5.6137968
5.6292253
5.6955344
5.2709671
5.2180254
5.2040344
5.19221
5.1470369
5.2709724
5.3583062
5.1678194
5.1819517
5.1947153
5.2114464
5.2693155
4.9203935
4.8799974
4.8809819
4.9204705
7.636932
10.08845
10.499277
9.1544016
5.7042542
4.8347432
4.8787813
4.9217281
4.6361755
4.6173592
4.6672656
8.3426376
11.186717
12.240367
12.436037
11.825886
10.170955
5.6486577
4.6302569
4.6449913
4.4070006
4.4233268
6.1194657
10.213224
11.76896
12.822429
13.007978
12.378829
11.037239
8.8575
4.5661097
4.4281483
4.2152111
4.2948291
8.1121236
10.072669
11.298351
12.632368
12.907911
12.355255
10.72697
9.3642302
5.4426278
4.2447432
4.0412595
4.4600015
8.3275465
9.470768
10.498753
11.85648
12.485744
11.702915
9.989372
8.9551353
6.7055861
4.0832483
3.8760574
4.8063776
8.0133745
8.8810671
9.7693073
10.644774
10.799094
10.248413
9.2810261
8.4744587
7.1284541
3.978218
3.7206783
5.2582789
7.646193
8.2515362
8.7086679
9.0656309
9.1362545
8.9033175
8.4748594
7.9802107
7.0534872
3.9868807
3.5769502
5.6043739
7.2366878
7.5882039
7.7439513
7.8257928
7.8385992
7.7864989
7.6700747
7.4466775
6.8068522
4.1974923
3.4445731
5.7301079
6.7920633
6.9518557
6.9336624
6.8845918
6.8692901
6.9028057
6.9462969
6.9035014
6.5003601
4.4975323
3.3245838
5.6764877
6.3432846
6.3743692
6.2654304
6.1592267
6.1322998
6.2020735
6.3208779
6.3844329
6.163232
4.7293482
3.2287172
5.5076134
5.9135684
5.8639673
5.7122329
5.5851307
5.5545648
5.6367954
5.7866849
5.9080915
5.8139281
4.8322057
3.1743552
5.2786651
5.5152787
5.4177155
5.2493938
5.118596
5.0880281
5.1717132
5.330386
5.480457
5.4700372
4.8175403
3.198426
5.0279112
5.1530739
5.0285196
4.8574052
4.7308066
4.7017738
4.7820781
4.9385992
5.1005706
5.1437569
4.7222002
3.3041292
4.7810526
4.8270789
4.6882989
4.5215871
4.4026117
4.3757039
4.4506423
4.5998352
4.7641317
4.8424092
4.5794325
3.440117
4.5440649
4.5351292
4.3924345
4.2366255
4.1286805
4.1045331
4.1720825
4.3090226
4.4674148
4.5671323
4.4109361
9.8565129
9.8402209
9.8395724
9.8395287
9.8395103
9.8395006
9.8394972
9.839502
9.8395145
9.8395369
9.8396077
9.8414462
8.6176532
8.4730842
8.4653074
8.4621037
8.4605271
8.4597449
8.459589
8.4600725
8.46123
8.46338
8.4683276
8.4809026
7.6278426
7.5198203
7.5136061
7.5075821
7.503177
7.5005045
7.499936
7.5016251
7.5052379
7.510374
7.5170564
7.5231128
6.8461836
6.7582991
6.7525309
6.7436286
6.7350763
6.7292238
6.7279071
6.731688
6.7391969
6.7482382
6.7560486
6.760845
6.2145731
6.1403715
6.1321136
6.1186404
6.1040353
6.0939302
6.0915343
6.0981577
6.1110928
6.1258099
6.1371247
6.1434603
5.6969963
5.6330386
5.6211083
5.6023425
5.5813952
5.5814222
5.5784796
5.5773607
5.5913679
5.6122132
5.6282719
5.6371078
5.2706273
5.2157837
5.202898
5.1960658
5.1457026
5.3608328
5.4933361
5.2083293
5.1759685
5.1952429
5.2106425
5.2202545
4.92104
4.8775902
4.8826881
5.0082349
8.1501475
10.512725
10.885415
9.6594567
6.1386217
4.8479467
4.8795232
4.8800501
4.6387084
4.6147567
4.7442008
8.7951493
11.416994
12.452212
12.641979
12.041569
10.459301
6.0760478
4.6339359
4.6089882
4.4124925
4.424655
6.5914132
10.399272
11.985347
13.04049
13.178893
12.613376
11.226149
9.1584218
4.6700136
4.394075
4.2235075
4.3501833
8.3827132
10.21331
11.639273
12.972278
12.910781
12.796218
10.91395
9.4988294
5.8291425
4.217402
4.049785
4.6410654
8.444776
9.5761294
10.824882
12.570962
12.420984
12.49687
10.422381
9.0465434
7.0333278
4.0449056
3.882551
5.1773737
8.0936642
8.9681007
9.9365011
10.832428
10.92208
10.454184
9.3956055
8.5463508
7.312722
3.9480661
3.7253778
5.6705016
7.7074576
8.3050068
8.7825777
9.1527512
9.2159923
8.9865134
8.5332168
8.0299949
7.1652745
3.9265368
3.5809602
5.8871314
7.2778833
7.6128546
7.7660063
7.8477686
7.8591176
7.8078047
7.690496
7.4746756
6.8856706
3.9950088
3.450727
5.8982839
6.8171861
6.9575199
6.9295705
6.8750477
6.858332
6.8950229
6.9452378
6.9151574
6.5573694
4.1685736
3.334509
5.7638241
6.3567638
6.3689524
6.2490873
6.1362859
6.1078985
6.18161
6.3087578
6.3855642
6.2008528
4.4076388
3.2549578
5.5457807
5.9187583
5.8526262
5.6908036
5.5575277
5.5256388
5.6116289
5.7694267
5.9029421
5.8350809
4.6053453
3.2319993
5.2966714
5.5146758
5.4035196
5.2264637
5.0903452
5.0586523
5.1456117
5.3111968
5.4716974
5.479974
4.6870308
3.2680084
5.0430063
5.1487208
5.0132038
4.8347271
4.7036557
4.6736851
4.756758
4.9191509
5.0898624
5.1474693
4.6539264
3.3500734
4.7905711
4.8205373
4.6728574
4.4999867
4.3772778
4.3495913
4.4268475
4.5809784
4.7525445
4.8423583
4.5431435
3.4454342
4.5479469
4.5275144
4.377686
4.2168553
4.1058786
4.0810986
4.150533
4.2915083
4.4558231
4.5645107
4.379306
9.8408674
9.8395703
9.8395326
9.8395147
9.8395037
9.8395005
9.8395052
9.8395187
9.8395419
9.8396184
9.843196
8.4763215
8.4662892
8.4626945
8.4610522
8.4602399
8.4600789
8.4605658
8.4617588
8.4640771
8.4699413
8.6124484
7.5216902
7.5150894
7.5090274
7.5047589
7.5021972
7.5016518
7.5032566
7.5067306
7.5117789
7.518379
7.6269629
6.7599789
6.7541995
6.7461472
6.7382985
6.7329469
6.7317443
6.7351748
6.7420749
6.7503107
6.7571139
6.845222
6.1424322
6.1345397
6.1226983
6.1096008
6.1003302
6.0982696
6.104115
6.1160528
6.1289493
6.1385781
6.2130386
5.6356877
5.6245955
5.6079905
5.5876639
5.5794348
5.5774198
5.5815504
5.5983229
5.6166608
5.6303578
5.6949955
5.218915
5.2066629
5.1928275
5.1253101
5.1692526
5.2095695
5.1340502
5.1866724
5.1984764
5.2128065
5.2684408
4.8803874
4.878894
4.8737315
6.5731456
9.1844474
9.6723161
8.1290505
5.2009338
4.8821084
4.8774285
4.9199231
4.6153639
4.6179402
7.4028485
10.724998
11.852242
12.054438
11.417872
9.5289346
5.0974634
4.6249144
4.6412121
4.4077918
5.3787781
9.8444573
11.41064
12.42418
12.635146
11.983111
10.710471
8.1622817
4.449076
4.4219112
4.2319629
7.5166089
9.8425947
11.116141
12.444862
12.839816
12.150776
10.454702
9.1031332
4.9112984
4.2362294
4.2342252
8.0763867
9.3016154
10.370975
11.815299
12.557525
11.595223
9.7650024
8.7947727
6.0351717
4.0729466
4.390629
7.8631995
8.7506096
9.528038
10.296584
10.47465
9.9256341
9.1096031
8.3520214
6.7196142
3.930272
4.6676927
7.5344061
8.1720039
8.6036864
8.9289478
8.9985872
8.7761893
8.3843917
7.8939344
6.8235443
3.8617533
5.0321525
7.1611836
7.5548011
7.7197532
7.8016996
7.8151583
7.7615288
7.6414138
7.3971541
6.6500283
3.938537
5.3047379
6.7473766
6.9496427
6.9513311
6.9127606
6.8998567
6.9264318
6.9542395
6.8832651
6.3891926
4.1878584
5.3990557
6.320383
6.3904832
6.3027598
6.2091318
6.1850253
6.2468102
6.3480719
6.3838742
6.0866887
4.4679741
5.3392504
5.9054303
5.8897495
5.7574371
5.6421058
5.6141848
5.6890329
5.822845
5.9194416
5.7650648
4.6512173
5.1811828
5.5173271
5.4479539
5.2964754
5.1758894
5.1476114
5.2249646
5.3697917
5.4986313
5.4429548
4.7003801
4.9716038
5.1620628
5.0602888
4.9034279
4.785477
4.7583786
4.8333691
4.9782362
5.1224595
5.1322271
4.6463678
4.746545
4.8403715
4.7199496
4.5651946
4.4534841
4.4281981
4.4987
4.6381423
4.7877688
4.8402465
4.5283222
4.5260882
4.5507323
4.4225619
4.276519
4.174508
4.1516843
4.2156258
4.3446215
4.4911557
4.5713879
4.376313
9.8448683
9.8396331
9.8395461
9.8395266
9.8395167
9.839514
9.8395189
9.8395321
9.8395565
9.8398502
9.8515488
8.6129422
8.4694734
8.464375
8.4623473
8.4614712
8.4613116
8.4618297
8.4631624
8.4662067
8.4748089
8.6148405
7.6272437
7.5182596
7.5123339
7.5082097
7.5058555
7.5053675
7.5068358
7.5100651
7.5150647
7.5210777
7.6271251
6.8457826
6.7572059
6.7511114
6.7447607
6.7403814
6.739391
6.7422165
6.7478526
6.7542847
6.7595486
6.8455812
6.2138737
6.1387469
6.130187
6.1205187
6.1131489
6.1113634
6.1162376
6.1252947
6.1347458
6.1420073
6.2140226
5.6958478
5.6305636
5.6184703
5.6050418
5.5942086
5.5916354
5.5985266
5.6115237
5.6248979
5.6353029
5.696695
5.2688958
5.2131187
5.2000643
5.1919648
5.182688
5.1761123
5.1867872
5.1933707
5.2069692
5.2187385
5.270496
4.9192278
4.8780891
4.8817519
4.9247724
5.7276685
6.1552595
5.2031463
4.8544816
4.8785703
4.8809106
4.921293
4.63817
4.6244192
4.8765043
8.316741
10.203871
10.47658
9.5347274
6.4033499
4.6136642
4.6171779
4.6397368
4.4153275
4.4524858
7.7779329
10.207401
11.073198
11.248795
10.716343
9.3909039
5.2504012
4.4158144
4.4145605
4.2309414
4.9712303
8.9573306
10.078362
10.771449
10.940254
10.462537
9.5903063
7.5469373
4.2495958
4.2266079
4.0604445
6.3092981
8.7139934
9.4787712
10.032035
10.453566
9.7738913
9.1177762
8.098328
4.3130867
4.0533315
3.9021932
6.9835261
8.2953738
8.8886337
9.3145114
9.4167009
9.1179054
8.6036814
7.8657182
4.5934889
3.8864483
3.7640135
6.9644097
7.8578648
8.2591275
8.4982223
8.5485098
8.3911929
8.0730219
7.5367357
5.0278457
3.7303761
3.702479
6.7513302
7.3810168
7.5958324
7.6863304
7.7013846
7.6466601
7.5029523
7.1631882
5.4632803
3.5930294
3.798602
6.4750032
6.8821291
6.9590882
6.9579932
6.9531363
6.9582189
6.9319266
6.7518595
5.6767229
3.4822765
4.0546436
6.1524568
6.3922324
6.3809679
6.3296346
6.3146598
6.3511002
6.3941299
6.3261693
5.6568531
3.455345
4.3229582
5.8117147
5.9329895
5.8697331
5.7934846
5.7739736
5.8251777
5.9056147
5.9110314
5.5009172
3.5700448
4.4827382
5.4742637
5.5145822
5.4225342
5.3358305
5.3148009
5.3716222
5.4702284
5.5220038
5.2782005
3.7991882
4.5140889
5.1528987
5.1391982
5.0323843
4.943072
4.9220834
4.9797053
5.0855216
5.1657069
5.0332008
3.9925989
4.4510619
4.8545895
4.8044259
4.6912897
4.6035904
4.5834215
4.6393477
4.7461116
4.8431645
4.78922
4.0740419
4.3308709
4.5806309
4.5070505
4.3946626
4.3122306
4.2935853
4.3456337
4.4480391
4.5526154
4.5533735
4.04862
9.856681
9.8408374
9.8395804
9.839551
9.8395398
9.8395375
9.8395438
9.8395583
9.8396422
9.8423197
8.6165563
8.4783658
8.4684008
8.4650138
8.4637149
8.463507
8.4642304
8.4662907
8.4704237
8.61207
7.6278824
7.5230291
7.5173396
7.5133495
7.5110319
7.5105703
7.5119994
7.5151852
7.518663
7.6276704
6.8464884
6.76108
6.7564465
6.7523804
6.749257
6.7485272
6.7506032
6.7544403
6.7576277
6.8461994
6.2151364
6.14365
6.137816
6.1320018
6.1273528
6.1262181
6.1293134
6.1349046
6.1398322
6.2138757
5.6978055
5.6372753
5.6293545
5.6209573
5.614357
5.6127254
5.6170716
5.6250517
5.6324367
5.6952904
5.2714776
5.221066
5.2119427
5.2027396
5.1957992
5.1956533
5.198904
5.2071884
5.2152325
5.2675712
4.9216504
4.8832151
4.8782057
4.8857202
4.8354398
4.8489965
4.8824485
4.8787719
4.8780397
4.9170892
4.6380267
4.6165301
4.6351283
4.7429482
5.6818981
6.0968029
5.1006176
4.6138614
4.6193429
4.6358732
4.4090686
4.4104944
4.5239069
6.930138
8.8950152
9.1789924
8.1690444
5.2499404
4.4298516
4.4142986
4.2168195
4.2461031
5.5465831
8.620967
9.3928561
9.5165313
9.110035
7.5456773
4.3784614
4.2329566
4.0417921
4.0990759
7.0523233
8.543204
8.9816099
9.0644144
8.8030269
8.0995657
4.9308667
4.0674092
3.8752347
4.1219601
7.3739596
8.1669278
8.4981103
8.5632501
8.3610501
7.8673581
5.9068682
3.9195765
3.7187631
4.3006865
7.2042682
7.762233
7.9998324
8.0446426
7.9027343
7.539256
6.404529
3.8100776
3.5742174
4.6301238
6.9314189
7.3170163
7.4622325
7.4866242
7.4049345
7.1658279
6.4009668
3.8023056
3.4412626
5.0134001
6.5984272
6.8454531
6.9157229
6.9246461
6.8897276
6.7540761
6.2152173
3.9871022
3.3202621
5.2504996
6.2316313
6.3755319
6.3941288
6.3930718
6.3890389
6.3280322
5.977047
4.3004058
3.2151103
5.2830728
5.8604767
5.9297376
5.9158964
5.908931
5.9235288
5.9126296
5.7024869
4.5762967
3.1684609
5.1653906
5.5034438
5.5201617
5.4868388
5.4765388
5.5018943
5.5233453
5.4116352
4.7099103
3.194538
4.9698734
5.1691241
5.1505126
5.1058724
5.0938372
5.1251067
5.1668053
5.1201009
4.6977497
3.2986128
4.753286
4.8611011
4.8194006
4.7686044
4.7558645
4.7899533
4.8440755
4.8406397
4.5899288
3.4355916
4.5372937
4.580203
4.5239476
4.471238
4.4586442
4.4929932
4.5533944
4.5808685
4.4365746
9.8534937
9.8411078
9.8397011
9.8396113
9.8396093
9.8396211
9.839852
9.8423155
9.851986
8.6151575
8.4794221
8.4704874
8.4690088
8.4684573
8.4700853
8.474915
8.6120757
8.6157141
7.6268861
7.5229864
7.5181176
7.5178384
7.5172541
7.5186222
7.5212647
7.6277082
7.627342
6.8452151
6.7609443
6.7569015
6.7569026
6.756331
6.7574615
6.7598182
6.8462426
6.8456966
6.2137055
6.1437
6.1390679
6.1382838
6.1374881
6.1390162
6.142348
6.2140261
6.2140948
5.69634
5.6375981
5.6317098
5.6297424
5.6286899
5.6308233
5.6356745
5.6955823
5.6966092
5.2699736
5.2214745
5.2144847
5.2120633
5.2111641
5.213255
5.2191771
5.2679214
5.2698277
4.9201234
4.8829602
4.87723
4.8797714
4.8801466
4.8778626
4.8813777
4.9174581
4.9189449
4.6367034
4.6145218
4.6157915
4.6305812
4.6347933
4.6254462
4.6176187
4.6362162
4.6336561
4.4081754
4.4053551
4.4039109
4.5739357
4.6754304
4.4499101
4.4161601
4.4144413
4.4025513
4.2165376
4.2332026
4.4642245
5.4739701
5.8460652
4.9116205
4.2497371
4.2329409
4.2087534
4.0419399
4.0631509
5.0375394
6.7421559
7.0504623
6.0335501
4.3111044
4.067257
4.0338399
3.8751197
4.0055841
5.8788784
7.1549429
7.3269138
6.7213109
4.5871498
3.9193968
3.868599
3.7180405
4.0561527
6.3072957
7.0742322
7.1771569
6.8265027
5.0178896
3.8091875
3.7133078
3.5733123
4.2387298
6.3458391
6.8241865
6.8961792
6.6528994
5.4543853
3.800236
3.5696056
3.4411297
4.5333371
6.1777939
6.5145824
6.5666156
6.3924642
5.6721081
3.9833667
3.437009
3.3221768
4.8346359
5.939524
6.174641
6.2087471
6.0901695
5.6553019
4.2957506
3.31492
3.2480147
4.9988709
5.6705129
5.8230774
5.8416782
5.7686628
5.5005166
4.5721156
3.2101838
3.2544483
4.9952317
5.3893033
5.4775166
5.4854646
5.4463166
5.2779742
4.7069703
3.1353096
3.3734267
4.8744764
5.1043588
5.1500546
5.1520741
5.1351633
5.0327674
4.6959186
3.1341478
3.5658417
4.6937927
4.8294927
4.8477188
4.8462707
4.8427734
4.7891654
4.5888587
3.2203823
3.7063739
4.4987322
4.5721337
4.5716435
4.5678662
4.5736027
4.5535938
4.4359186
3.3688854
9.8510198
9.8482429
9.8424965
9.8414483
9.8431962
9.85155
8.6175615
8.6146322
8.6117744
8.4809842
8.6125803
8.6149439
7.6291724
7.6277051
7.6270672
7.5232564
7.6272343
7.6273071
6.8473748
6.8462865
6.8455688
6.7610434
6.8455958
6.8458488
6.2157017
6.2147771
6.2136664
6.1437036
6.2135293
6.214381
5.6981567
5.6975192
5.6959299
5.6373542
5.6954618
5.6971229
5.2715088
5.2717817
5.2698865
5.2206008
5.2687795
5.2709084
4.9209082
4.9238305
4.9224389
4.880521
4.9202214
4.9217291
4.6359257
4.6447661
4.6459589
4.6096156
4.6416488
4.6402178
4.4052223
4.4232983
4.4292151
4.3948068
4.4225749
4.415188
4.2116366
4.2373975
4.2459365
4.2183721
4.2370072
4.2272997
4.036697
4.0627387
4.0847386
4.0458986
4.0737459
4.0540413
3.8713126
3.900095
3.9825908
3.9499066
3.9308842
3.8871943
3.7161162
3.7504278
3.9974856
3.9291158
3.8614538
3.7310403
3.5725045
3.6532413
4.2171592
3.9985648
3.9362122
3.5933881
3.4399634
3.6304209
4.5187443
4.1730748
4.1842888
3.4817844
3.3174783
3.7432845
4.7481857
4.4121235
4.4647922
3.4525854
3.2108305
3.9531893
4.8475017
4.6092197
4.6495239
3.5632424
3.1341347
4.153953
4.8297606
4.6906086
4.7000482
3.7910629
3.1273052
4.2658699
4.7319742
4.6573722
4.6468611
3.985971
3.2135027
4.2702018
4.5872251
4.5464705
4.5292656
4.0699158
3.3682216
4.1918303
4.4171354
4.3824067
4.3775232
4.0464395
9.85102
9.8515507
8.9074432
8.9036111
9.8482441
9.8431949
8.9023381
8.8979097
9.8565128
8.9101001
8.9088618
9.8424937
9.8414469
8.896854
9.049983
9.8512169
8.9089145
8.910096
9.8414441
9.8424947
9.0499987
8.8968015
9.8431941
9.848242
8.897997
8.902316
9.8515503
9.851019
8.9036328
8.9074504
3.339487
4.0342352
3.4521482
3.9538069
4.1764853
4.3688699
4.0834587
4.2520035
3.4432861
3.5090982
3.5068762
4.4071462
4.3738529
4.2789259
4.3343252
3.4413491
3.5081089
3.5148343
4.3746404
4.4085254
4.3344444
4.279899
4.3710033
4.1819444
4.2535368
4.0871869
4.0407263
3.3549622
3.9584503
3.4668925
9.8519876
8.9055371
9.8566637
8.9069157
9.8534859
9.8423285
8.9047047
8.8968774
8.9069435
9.8423224
9.8534683
8.8968539
8.9046448
9.8519856
8.9055888
3.3410453
3.4649543
3.4208103
3.5013557
3.6856881
4.4319915
3.7131132
4.3165443
3.5141529
4.4344444
3.6974503
4.3178144
3.7223272
3.3537308
3.4775375
9.8534794
8.9046873
9.8566797
9.8423248
8.9069549
8.8968647
8.9047005
9.8423215
9.85668
8.8968432
8.9069482
3.6875482
3.7144761
3.4267476
4.4346459
3.5071431
4.3185588
3.7215204
4.4341599
3.4336785
4.3177466
3.513471
9.850942
8.9074059
9.85155
8.9036161
8.907409
9.8515509
8.9035628
3.347302
3.459395
4.0403115
3.9586954
3.4655227
4.0410997
3.9589382
9.8482436
8.9023729
9.8431948
8.8979452
8.9023537
9.8431921
8.8979103
11.666519
10.66885
10.962814
12.364668
12.748412
11.828361
12.473383
11.43862
10.961908
10.660065
12.746306
12.346832
12.474569
11.800044
10.758255
9.9078101
10.15857
11.725833
12.44358
10.852556
11.246422
10.461399
10.158276
9.8996181
12.444398
11.700399
11.247338
10.838892
4.1830546
4.0887214
4.3740734
4.2566432
4.0875426
4.3729204
4.2550579
9.8424937
8.910058
8.8968572
9.8563835
9.8414459
8.9088964
9.0499753
9.8511919
8.8968222
8.9100474
9.8414419
9.8565125
9.0499547
8.9088587
12.910785
11.909728
12.510725
12.959498
12.89593
12.597078
12.453975
12.613417
12.512328
11.877311
12.892968
12.937837
12.453168
12.557977
11.283073
11.803522
10.679025
12.785856
11.617092
12.525239
11.002053
11.733731
9.9278331
10.860128
10.819711
12.528588
10.19981
11.287151
12.485538
11.106495
11.442982
12.567509
12.414685
11.477295
11.538814
11.826602
11.442545
11.090339
12.413934
12.529393
11.535479
11.454378
10.479317
10.842293
9.9119771
12.491272
10.796569
11.261329
10.178899
4.4123298
3.5138412
4.2835571
3.4458236
4.3788732
3.5092434
4.3388795
3.4455682
4.2819105
3.5189481
4.3782323
3.4530282
4.3375398
3.5162015
9.841444
8.9088751
9.0500048
9.8511913
9.8424941
8.9100529
8.8968235
9.8563845
9.0500004
8.9089062
9.8424923
9.851194
8.8967575
8.9100416
12.532694
10.20357
11.292699
10.530511
11.813559
9.9551348
10.908599
12.422506
11.484915
11.548504
11.945612
12.597822
11.159848
11.496254
12.535876
11.54505
11.464013
12.59759
11.908187
11.491134
11.132661
10.802622
11.270942
10.183343
11.77721
10.509626
10.879865
9.9333639
4.3787874
3.5088449
4.3390044
3.4393086
4.4127596
3.513343
4.2839307
3.4542839
4.3378904
3.517294
4.4135053
3.4521037
4.2840071
3.5245025
9.8431932
8.8980243
9.8482415
8.9023338
8.8979543
9.8482428
8.9022554
12.842202
11.92112
12.594255
11.339405
11.658934
10.738615
11.047853
12.422781
12.594509
11.886996
11.656513
11.326383
11.045893
10.725793
12.558496
10.910051
11.305808
10.537577
10.840041
9.9584494
10.213803
11.780983
11.299977
10.885284
10.838072
10.524088
10.211236
9.9464292
4.375009
4.2573956
4.1838746
4.0896308
4.2578832
4.1888346
4.0928007
9.8515525
8.9036331
9.8509418
8.9074056
8.9036156
9.8509425
8.907347
4.0425919
3.9606314
3.3542287
3.46585
3.9649774
3.367317
3.4782974
9.842323
8.9069592
8.8968515
9.8534675
8.9046565
9.8566807
8.8969906
8.9069075
9.8534861
8.9049387
4.4402941
3.5151009
4.3232455
3.7038069
3.7279028
3.4459229
4.3196609
3.5246616
3.6643744
3.6931789
9.8519861
8.9055841
9.8423222
8.9046723
8.8968184
9.8566635
8.9069288
9.8534539
8.8970052
8.9048663
9.8566626
8.9069351
8.9056377
3.361686
3.4849919
4.4427951
3.7298797
4.3249865
3.4467478
3.5256361
3.6633195
4.319312
3.6923687
3.4403693
3.51939
3.4755965
9.8515489
8.9074682
8.9035741
9.8431941
8.9023955
8.897922
9.8414439
8.8968861
9.0499802
9.8512175
9.8563744
8.9100789
8.9088921
9.8424933
9.0500574
8.8968567
9.8565133
9.8512155
8.908883
8.9101143
9.8482429
8.8980596
8.9023234
9.851019
8.903684
8.9074697
4.0511757
3.4791741
3.9672968
4.379776
4.0954925
4.2609091
4.3830484
4.2872526
4.3413397
3.4554175
3.457996
3.5274541
3.5207153
4.4153584
4.341289
4.2858117
3.4571
3.4499183
3.5200082
3.5229336
4.1871285
4.2591777
4.0919285
3.3605193
3.9635559
3.4720496
9.5425514
9.8506104
9.5412914
9.8554236
9.5450206
9.8571601
9.5439696
9.8531682
9.5440409
9.8537577
9.5460816
9.5422443
9.8564517
9.5441917
9.851192
9.5411863
9.8519026
9.5446452
9.5413537
9.8567002
9.5409776
9.8555069
9.5416482
9.852424
9.8448709
8.9058725
8.8993157
9.841107
9.8398512
9.0461406
9.0404733
9.8530288
8.8993721
8.9058418
9.8398526
9.8411036
9.0404393
9.0461465
9.5449276
9.8520652
9.5434847
9.8522303
9.5427445
9.5412319