/*--------------------------------*- C++ -*----------------------------------*\
| =========                 |                                                 |
| \\      /  F ield         | OpenFOAM: The Open Source CFD Toolbox           |
|  \\    /   O peration     | Version:  2406                                  |
|   \\  /    A nd           | Website:  www.openfoam.com                      |
|    \\/     M anipulation  |                                                 |
\*---------------------------------------------------------------------------*/
FoamFile
{
    version     2.0;
    format      ascii;
    arch        "LSB;label=32;scalar=64";
    class       volScalarField;
    location    "100";
    object      p;
}
// * * * * * * * * * * * * * * * * * * * * * * * * * * * * * * * * * * * * * //

dimensions      [0 2 -2 0 0 0 0];

internalField   nonuniform List<scalar> 
71615
(
0.31274644
0.30841787
0.30755016
0.30745705
0.3044341
0.30448764
0.29870054
0.29877989
0.28877776
0.28890596
0.27237309
0.2725658
0.24606283
0.24631153
0.20569116
0.20598345
0.14764118
0.14785807
0.072318208
0.072317019
-0.010348784
-0.010760549
-0.08059498
-0.081366357
-0.12166232
-0.12234451
-0.13223665
-0.13258938
-0.12206921
-0.12215156
-0.10232496
-0.10235
-0.080630936
-0.080565217
-0.060708577
-0.060559873
-0.043770231
-0.043597909
-0.02983501
-0.029684762
-0.018420567
-0.018268432
-0.0087978248
-0.0084436396
0.30879822
0.30895671
0.30953986
0.30976242
0.30943161
0.30883175
0.30787837
0.30732339
0.30800889
0.30881195
0.30905817
0.30849867
0.30780284
0.30737496
0.3042437
0.30508562
0.30623836
0.30657488
0.30575852
0.30495602
0.30426855
0.29838468
0.29949554
0.30126942
0.30179178
0.30049942
0.29942577
0.29839368
0.28824752
0.28982518
0.29252907
0.2933216
0.29135294
0.2898735
0.28824602
0.2715144
0.27362477
0.27760879
0.27875786
0.27585975
0.2739381
0.27152518
0.24484779
0.24705181
0.2524366
0.25395952
0.2500567
0.24811817
0.24484756
0.20415348
0.20506965
0.21114652
0.21282133
0.20844852
0.20797867
0.20420677
0.14615863
0.14295904
0.14746173
0.14859485
0.14547739
0.14942232
0.14633342
0.071607549
0.060427733
0.058893083
0.057971595
0.059834864
0.072319383
0.07216593
-0.009744704
-0.030213215
-0.041611334
-0.045754905
-0.035948392
-0.013224207
-0.0086370967
-0.079077643
-0.10295645
-0.1195753
-0.12443475
-0.11181053
-0.085649917
-0.07765812
-0.12024192
-0.13835694
-0.15095395
-0.15405816
-0.14520664
-0.12665751
-0.11894393
-0.13140712
-0.14003298
-0.14624774
-0.14710595
-0.14360207
-0.13565091
-0.13054027
-0.12177862
-0.12280181
-0.12373188
-0.123264
-0.1235521
-0.12371822
-0.12144159
-0.10226284
-0.098830107
-0.097052336
-0.096166033
-0.098021944
-0.10254575
-0.10230504
-0.080594184
-0.075286246
-0.072712613
-0.071941369
-0.074005938
-0.0799375
-0.080832115
-0.060693188
-0.055060075
-0.052559703
-0.052032944
-0.053823478
-0.059623539
-0.061012243
-0.043775008
-0.038639823
-0.036512844
-0.036136744
-0.037581469
-0.042641178
-0.044091584
-0.029798071
-0.02551911
-0.023852942
-0.023581489
-0.024691524
-0.028831264
-0.030132115
-0.018325167
-0.01497687
-0.013772936
-0.013609411
-0.014385722
-0.017637479
-0.018675378
-0.0086037664
-0.0063747573
-0.0057549972
-0.0057033926
-0.0060970518
-0.0084401817
-0.0088669177
0.3083935
0.3097297
0.31149694
0.31291763
0.3133776
0.31267943
0.31114618
0.30945186
0.30828642
0.3074597
0.30917696
0.31145571
0.31320403
0.31362689
0.31251039
0.31039997
0.30825949
0.30735415
0.3044853
0.30669283
0.30993994
0.31248191
0.31309939
0.3114501
0.30840205
0.30541903
0.30427695
0.2987513
0.30189874
0.3069252
0.31092858
0.31190809
0.30927283
0.30449755
0.29990504
0.29837681
0.28881583
0.29340411
0.30117793
0.30754385
0.30911647
0.30487437
0.29736949
0.29038248
0.28817226
0.27232893
0.27874974
0.29038308
0.30019634
0.30265376
0.29603112
0.28463626
0.27433928
0.27137742
0.24588229
0.25375173
0.26977858
0.28383011
0.28741559
0.27782297
0.26176434
0.24789801
0.24462716
0.20539522
0.21224464
0.23095125
0.24835594
0.25300557
0.24084519
0.22152727
0.2059148
0.20385312
0.14731931
0.14755623
0.16148263
0.17330538
0.1761052
0.16881052
0.15463699
0.14353654
0.14589887
0.072180155
0.057142203
0.047291907
0.031380591
0.02662301
0.039659589
0.054020229
0.060434356
0.071753774
-0.010329302
-0.045658261
-0.08860822
-0.13632425
-0.14937651
-0.1143616
-0.064452393
-0.03082391
-0.0088789158
-0.080884241
-0.12473987
-0.17946628
-0.23383188
-0.24789138
-0.21003487
-0.14969094
-0.10428635
-0.077664786
-0.12244394
-0.15544097
-0.19527822
-0.22911667
-0.2373308
-0.21506798
-0.17451996
-0.14011534
-0.11883494
-0.1332011
-0.14860026
-0.1670141
-0.17945778
-0.18241568
-0.17477978
-0.15791834
-0.14177669
-0.13046301
-0.12283946
-0.12436337
-0.12775398
-0.12879761
-0.12925516
-0.12863464
-0.12653641
-0.12404914
-0.12140306
-0.10268295
-0.096791101
-0.092775371
-0.089451797
-0.088816709
-0.090956131
-0.095249394
-0.099537591
-0.10226666
-0.080615103
-0.072141966
-0.065672866
-0.061234289
-0.060288163
-0.063173672
-0.069124012
-0.075583716
-0.080765252
-0.060451969
-0.051889955
-0.045438884
-0.041228251
-0.040334236
-0.043058683
-0.048652734
-0.055118716
-0.0609072
-0.043439192
-0.035789628
-0.030345682
-0.026831686
-0.026093514
-0.028351052
-0.0330035
-0.038578958
-0.043986304
-0.029495458
-0.023165811
-0.018913288
-0.016185374
-0.015612034
-0.017365299
-0.020974872
-0.025408341
-0.029961395
-0.018141395
-0.013236053
-0.010151549
-0.0081061383
-0.0076776421
-0.0089918207
-0.011648696
-0.01486286
-0.018423462
-0.0086834413
-0.0056232171
-0.0037989811
-0.0024241999
-0.0021333595
-0.0030191341
-0.0047059839
-0.0064254145
-0.0085266054
0.30878364
0.30973768
0.31244902
0.31551121
0.31784303
0.31857674
0.31743587
0.31486816
0.31183434
0.30939578
0.31116489
0.30731761
0.30918182
0.31272976
0.31659189
0.31938301
0.32002432
0.31825875
0.31480049
0.31095541
0.30807888
0.30750866
0.30423769
0.30670811
0.31177148
0.31741755
0.32158234
0.32254328
0.31987654
0.31474945
0.30918916
0.3051491
0.30437981
0.29837645
0.30191007
0.30972212
0.31871183
0.32557492
0.32717865
0.32272166
0.31438092
0.30566776
0.29947135
0.29851696
0.28824877
0.29340875
0.30548551
0.32000888
0.33149687
0.33423643
0.32664216
0.31289879
0.29911273
0.28969814
0.28839723
0.27152374
0.27875236
0.2968608
0.3198588
0.33913185
0.34382085
0.33086918
0.30839478
0.28719219
0.27334294
0.27175037
0.24483131
0.25375452
0.2788556
0.31286435
0.34294599
0.35058229
0.32987627
0.29566172
0.26522952
0.24657652
0.24514237
0.2040791
0.21223112
0.2417764
0.28626907
0.32681976
0.33639366
0.30958829
0.26318793
0.22546612
0.20445816
0.20456867
0.14602537
0.14750867
0.16963432
0.19450214
0.20052317
0.2013595
0.19987725
0.18448634
0.15750308
0.14240168
0.14669075
0.071420981
0.057059339
0.039456912
-0.018726397
-0.073865294
-0.083016162
-0.05094467
0.015961533
0.052230901
0.060620897
0.072391195
-0.0099140902
-0.045817428
-0.11975868
-0.2495744
-0.34557842
-0.36600566
-0.30571688
-0.18306158
-0.073289251
-0.028741106
-0.0086732017
-0.079245465
-0.12497883
-0.21772302
-0.34286692
-0.44211556
-0.46290275
-0.39918102
-0.28107996
-0.16194105
-0.10076629
-0.077915165
-0.12040837
-0.15574689
-0.22050691
-0.28909401
-0.33988953
-0.35270156
-0.31862875
-0.25604551
-0.18416802
-0.13679143
-0.11928735
-0.13153688
-0.14889109
-0.17671943
-0.20063027
-0.2174657
-0.22169558
-0.21070768
-0.18953064
-0.16284453
-0.13969458
-0.13083506
-0.12189862
-0.12460021
-0.12885927
-0.13059847
-0.13196568
-0.13250623
-0.13165016
-0.12995438
-0.12748798
-0.12311267
-0.12161113
-0.10233704
-0.096937993
-0.090288978
-0.083529226
-0.079400271
-0.078646914
-0.081287613
-0.086830265
-0.094066414
-0.099376533
-0.10236727
-0.080657785
-0.072223265
-0.062162852
-0.053362842
-0.047979797
-0.046922516
-0.050320101
-0.057592731
-0.067367549
-0.075828525
-0.08085101
-0.060737324
-0.05193013
-0.042074452
-0.033815636
-0.028791916
-0.027792639
-0.030943059
-0.037757221
-0.047069002
-0.055515761
-0.061006632
-0.04381064
-0.035806148
-0.02752902
-0.02064478
-0.016477304
-0.015642743
-0.018250494
-0.023912566
-0.031709382
-0.038984052
-0.044101844
-0.02983996
-0.023172374
-0.016726831
-0.011337547
-0.0080350733
-0.0073719725
-0.0094341097
-0.013902402
-0.019973266
-0.025772407
-0.030158932
-0.01837361
-0.013240258
-0.0085207293
-0.0044300821
-0.0018980328
-0.0013830446
-0.0029672301
-0.0063732591
-0.010928111
-0.015155183
-0.018706335
-0.0086430487
-0.0056200455
-0.0027298736
0.0001578333
0.0020646442
0.0024657734
0.0012609216
-0.0012248268
-0.0042887076
-0.0064924028
-0.0089442384
0.30896823
0.31152244
0.31553603
0.31982679
0.32302068
0.32401456
0.32245498
0.31890692
0.31459608
0.31087317
0.30893061
0.30802806
0.31147509
0.31660732
0.32193323
0.32571117
0.32656648
0.32417364
0.31944596
0.31403879
0.30962253
0.30777623
0.30512297
0.30998857
0.31745046
0.32543264
0.33123969
0.33256502
0.32884481
0.32164522
0.31364976
0.30730111
0.30492509
0.29951907
0.30696113
0.31873998
0.33195208
0.34184736
0.34412765
0.33772023
0.32556814
0.31261637
0.30275409
0.29931376
0.28983244
0.30118051
0.32001925
0.34228528
0.36038274
0.36470072
0.35258045
0.33129053
0.31003585
0.2946549
0.28962964
0.27359559
0.29037357
0.31987545
0.35787198
0.38980563
0.39756792
0.37604521
0.33868091
0.30392634
0.28061484
0.27359657
0.24699874
0.26978069
0.31293155
0.37324329
0.42848877
0.44211816
0.40420339
0.34216211
0.28912575
0.2563056
0.24764914
0.20494237
0.23096442
0.28643701
0.36653758
0.42297695
0.43486595
0.4001793
0.32656348
0.25475036
0.21528896
0.2074737
0.14272472
0.161463
0.19451681
0.20021212
0.21443008
0.22455186
0.20418261
0.20190485
0.17846173
0.15003622
0.14909622
0.06007645
0.046935161
-0.019652649
-0.11401706
-0.098270395
-0.066147615
-0.11947706
-0.074308853
0.025965835
0.056594641
0.072631595
-0.030626991
-0.089664882
-0.25105742
-0.41859194
-0.44649505
-0.41597093
-0.45244327
-0.34280295
-0.15654175
-0.050958298
-0.011991857
-0.10335266
-0.1805576
-0.3436994
-0.52773389
-0.64031312
-0.74431888
-0.61240828
-0.43474162
-0.25550092
-0.13115367
-0.083811875
-0.13868521
-0.19608229
-0.28960745
-0.39288115
-0.50866413
-0.54150967
-0.44913476
-0.33903118
-0.24153063
-0.159759
-0.1249181
-0.1402811
-0.16742401
-0.2008513
-0.23435594
-0.26626475
-0.27534519
-0.25149805
-0.21747053
-0.18416232
-0.15008322
-0.13457076
-0.12302364
-0.12791157
-0.13064891
-0.13389585
-0.13812899
-0.13955238
-0.13630028
-0.13223728
-0.12937961
-0.12426503
-0.12341151
-0.098979005
-0.092805605
-0.083504763
-0.076032814
-0.071895728
-0.071215605
-0.07372778
-0.079593451
-0.088168972
-0.09607351
-0.10277604
-0.075376705
-0.065644626
-0.053312089
-0.043395417
-0.037532389
-0.036409324
-0.040069276
-0.048088726
-0.05944079
-0.071277728
-0.080400386
-0.055109529
-0.045391219
-0.033761069
-0.024473651
-0.018996486
-0.01793021
-0.021337373
-0.0288512
-0.039530016
-0.051094376
-0.060174618
-0.038676698
-0.030300429
-0.020596089
-0.012878692
-0.0083093337
-0.0074166215
-0.010254188
-0.016515106
-0.02540756
-0.03515866
-0.043217157
-0.025547557
-0.018877847
-0.01129926
-0.005177264
-0.0015638669
-0.000852014
-0.0030957426
-0.0080585288
-0.015070682
-0.022696067
-0.029366716
-0.015002391
-0.010126818
-0.0044020708
0.00032461621
0.0031799652
0.0037515535
0.001979489
-0.0019064132
-0.0072671551
-0.012903606
-0.018097195
-0.0064050242
-0.0037859127
0.00017273474
0.0037962166
0.0061488944
0.0066407436
0.0051621679
0.0020694506
-0.0018562051
-0.0054487461
-0.0088484168
0.3127192
0.3095661
0.3129631
0.31789721
0.3230512
0.32685499
0.3280356
0.32617846
0.3219402
0.31673021
0.3121058
0.30926904
0.30757109
0.30883477
0.3132323
0.3194112
0.32572984
0.33018972
0.33119332
0.32836379
0.3227654
0.31630846
0.31088166
0.30826268
0.30446417
0.30629362
0.3125486
0.3216444
0.33127248
0.33826199
0.33984741
0.33537104
0.32668707
0.31699953
0.3091193
0.30559372
0.29872126
0.30130605
0.31098034
0.32563448
0.34188915
0.3540814
0.35692163
0.34894124
0.33402766
0.31799001
0.3055685
0.3002977
0.28876988
0.29251908
0.30754091
0.33153139
0.36042885
0.38434834
0.38996576
0.37399849
0.34592369
0.31876788
0.29898186
0.29113599
0.27228364
0.27752824
0.30016846
0.3391854
0.38989155
0.43296956
0.44362879
0.41423963
0.36424287
0.31792624
0.28710034
0.2758095
0.24589478
0.25231854
0.28381619
0.34313487
0.42874762
0.50409076
0.52140739
0.47159662
0.384213
0.31004835
0.26528979
0.25064005
0.20538355
0.21091497
0.24835647
0.32718839
0.42329975
0.49230934
0.50948199
0.46219592
0.37775692
0.28245488
0.2258412
0.21089625
0.14719303
0.14705459
0.17308488
0.2001228
0.21495312
0.31406073
0.35495071
0.25611971
0.20190615
0.19114397
0.15786061
0.15172497
0.071702797
0.058247827
0.030112448
-0.076182773
-0.092329231
0.20806577
0.34070242
0.018656346
-0.1170144
-0.011817319
0.05006517
0.072055615
-0.011024934
-0.042524945
-0.13865406
-0.34918317
-0.52223724
-0.1888158
0.43713922
-0.10650098
-0.45016752
-0.23743066
-0.075855529
-0.017506026
-0.08120667
-0.12031849
-0.2350857
-0.44238462
-0.63269307
-0.67172476
-0.83044404
-0.90800609
-0.56533497
-0.33167417
-0.16158574
-0.09249236
-0.12210958
-0.15148897
-0.2298389
-0.34068097
-0.5087658
-0.79087191
-0.88303018
-0.63290161
-0.4083762
-0.28211026
-0.18092433
-0.13266347
-0.13249957
-0.14661237
-0.17967814
-0.21759133
-0.26625916
-0.33197002
-0.35067646
-0.2981247
-0.23948581
-0.19790934
-0.15950371
-0.13938913
-0.1221994
-0.12394282
-0.1287663
-0.13186704
-0.13800245
-0.14813121
-0.15113349
-0.14302565
-0.13445919
-0.1302246
-0.12606477
-0.12504669
-0.10234233
-0.097135624
-0.08931068
-0.079228451
-0.071748167
-0.068448859
-0.067976069
-0.069763664
-0.075205844
-0.084220456
-0.094160991
-0.10229378
-0.080599523
-0.072729228
-0.061060514
-0.047802524
-0.037399064
-0.031462
-0.03032716
-0.033969791
-0.042300635
-0.05436689
-0.067891279
-0.079066552
-0.060651874
-0.052547939
-0.04106307
-0.028633991
-0.018884175
-0.013220004
-0.012104496
-0.015618882
-0.023467312
-0.034789021
-0.04757058
-0.058578363
-0.043708976
-0.036496877
-0.026694571
-0.016348305
-0.0082210004
-0.0035000355
-0.0025668313
-0.0054890971
-0.012044859
-0.021471962
-0.032147144
-0.041597582
-0.029787988
-0.023845366
-0.016079666
-0.0079353248
-0.0014977023
0.0022572511
0.003003739
0.00068030624
-0.0045207891
-0.011989721
-0.020342606
-0.027906686
-0.018381571
-0.013781027
-0.0080311186
-0.0018252648
0.0032264764
0.0062333659
0.0068378843
0.0049728148
0.00084562822
-0.0049347381
-0.011183073
-0.016870287
-0.00875472
-0.0057915984
-0.0023870089
0.0020979298
0.0061702502
0.0087827941
0.0093316405
0.0076879384
0.0042309618
-0.00020140406
-0.0043951054
-0.007871621
0.30838873
0.30978822
0.31342794
0.31864063
0.324056
0.32804324
0.32928071
0.32733188
0.32288296
0.31740658
0.31251172
0.30941974
0.30747451
0.30907638
0.31365035
0.3200523
0.32658935
0.33120154
0.33223768
0.32930942
0.32351639
0.31682952
0.31120728
0.30800602
0.30451127
0.30662499
0.31316312
0.32260964
0.33260778
0.33985736
0.34149985
0.33685775
0.32783715
0.31777569
0.30960288
0.30502626
0.29879257
0.30182035
0.31195383
0.32724425
0.34419231
0.35695627
0.35994278
0.35155381
0.33597956
0.31925493
0.30631874
0.29930062
0.28889211
0.29329113
0.30910011
0.33428253
0.36478803
0.3900368
0.39596174
0.37910883
0.34942852
0.32085305
0.30013574
0.28942134
0.2724296
0.27863886
0.30260165
0.34388538
0.39774492
0.44377441
0.45515472
0.42370193
0.37046655
0.32135834
0.28884025
0.27300076
0.24609462
0.25378962
0.28734851
0.35079099
0.44256984
0.52171656
0.53967078
0.48769865
0.39494578
0.31533265
0.26778248
0.24624092
0.20556977
0.21248976
0.25285021
0.33660154
0.43519251
0.50970148
0.52894606
0.47641651
0.38869817
0.28957969
0.22888897
0.20428733
0.14730602
0.14798418
0.1754251
0.20048629
0.22495077
0.35586954
0.405803
0.27963824
0.20353809
0.19313478
0.16019263
0.14251585
0.071540483
0.056954858
0.024720245
-0.086648649
-0.06599508
0.34370784
0.48987911
0.10096148
-0.11572702
-0.021869194
0.04812072
0.060967821
-0.011700078
-0.047135362
-0.15202285
-0.37160772
-0.47766533
0.43842867
1.1497896
0.42334732
-0.45970661
-0.25728654
-0.082941349
-0.028053257
-0.082181659
-0.12539615
-0.24887084
-0.45701991
-0.72321425
-0.83534243
-0.41023239
-0.87161683
-0.66076351
-0.34982785
-0.17032233
-0.099510219
-0.12293807
-0.15457433
-0.23758042
-0.35315886
-0.54223423
-0.88582712
-0.96097438
-0.69724934
-0.42703999
-0.29189702
-0.18716661
-0.13515327
-0.13289675
-0.14724317
-0.18222683
-0.22123046
-0.27500574
-0.35085452
-0.36839824
-0.31213761
-0.24537194
-0.20116711
-0.16261909
-0.13817694
-0.12225661
-0.12317344
-0.12890465
-0.13198331
-0.13908129
-0.15092658
-0.15410891
-0.14504853
-0.1351779
-0.13052829
-0.12695435
-0.12212477
-0.10230804
-0.095951916
-0.088441419
-0.078178473
-0.07080658
-0.067759295
-0.067332816
-0.068984064
-0.074328636
-0.083420975
-0.093592989
-0.099194369
-0.080459219
-0.071685306
-0.059942506
-0.046536957
-0.036085566
-0.030152608
-0.029032793
-0.032676067
-0.041094562
-0.05329517
-0.066951799
-0.07611912
-0.060441173
-0.05179645
-0.040041181
-0.027484798
-0.017680186
-0.011970965
-0.010861327
-0.014399318
-0.022345052
-0.033784208
-0.046711196
-0.05594638
-0.043490835
-0.035932606
-0.025859112
-0.015403543
-0.0072264813
-0.0024663791
-0.0015373481
-0.0044811348
-0.011109061
-0.020639909
-0.031444341
-0.039435235
-0.029618701
-0.023421246
-0.015435442
-0.0071950622
-0.00071246114
0.0030773609
0.0038212911
0.0014792455
-0.0037825536
-0.011332803
-0.019804055
-0.026220874
-0.018240177
-0.013492673
-0.0075557547
-0.0012634181
0.0038463363
0.0068866948
0.0074924683
0.0056094114
0.0014307886
-0.0044349827
-0.01079718
-0.015577321
-0.0084405162
-0.0056336774
-0.0020713935
0.0025246221
0.0066895527
0.0093553709
0.0099158769
0.0082376089
0.0047017869
0.00015894399
-0.0041730007
-0.0065520255
0.30944185
0.31271125
0.31747583
0.32246916
0.32616517
0.32731361
0.32550681
0.32138879
0.31634785
0.311891
0.30914002
0.30850453
0.31251733
0.31826804
0.32417869
0.32835414
0.3292942
0.3266413
0.32139807
0.31537216
0.31037257
0.30816808
0.3057867
0.31148599
0.31991091
0.328856
0.33535881
0.33683987
0.33266878
0.32459524
0.31560494
0.30835256
0.30542164
0.30051426
0.3092934
0.32275816
0.33775987
0.34896467
0.35155527
0.34425744
0.33049171
0.31573257
0.30436844
0.30005552
0.29131416
0.30484491
0.32667823
0.35267427
0.37409843
0.37915388
0.36480095
0.33968543
0.31505916
0.29711022
0.29071316
0.2757367
0.29596509
0.33092363
0.37623836
0.4144655
0.42381933
0.39785533
0.35327815
0.31190673
0.28427916
0.27512665
0.24983167
0.27770098
0.33001649
0.40468764
0.47210274
0.48792989
0.44261317
0.36584059
0.30099108
0.26137646
0.24965643
0.20802292
0.24056746
0.30968273
0.40046217
0.46243096
0.47648653
0.43628088
0.35681013
0.27029948
0.2212126
0.20966417
0.14477343
0.16799762
0.19895596
0.20363648
0.25608845
0.28018166
0.22364558
0.20115327
0.18670323
0.15449726
0.15051953
0.058727339
0.037903424
-0.053910178
-0.12021095
0.023921373
0.098091423
-0.073366957
-0.10590421
0.0052317003
0.053529846
0.071449038
-0.037378275
-0.1164705
-0.30982259
-0.46074161
-0.094099153
0.43110132
-0.043132768
-0.40380847
-0.20339974
-0.064593414
-0.016936611
-0.11300535
-0.21111873
-0.40085477
-0.6103913
-0.92548385
-0.8967674
-0.90658549
-0.50386641
-0.30023707
-0.14820902
-0.090928853
-0.14589028
-0.21536254
-0.31878103
-0.45026852
-0.63600624
-0.69814155
-0.541332
-0.37810823
-0.26561906
-0.17197017
-0.13103139
-0.14375549
-0.1745715
-0.21020142
-0.25117049
-0.29840955
-0.31211286
-0.27476409
-0.2298854
-0.19256693
-0.15574651
-0.13824274
-0.12338125
-0.12824873
-0.1310566
-0.13573776
-0.14275458
-0.14485926
-0.13932311
-0.13340805
-0.13003735
-0.12537078
-0.12452325
-0.097693257
-0.09054673
-0.080754618
-0.073214928
-0.069442084
-0.068800583
-0.071027942
-0.076914626
-0.085883835
-0.095025549
-0.1020539
-0.073647769
-0.062796918
-0.049881963
-0.03965403
-0.033696022
-0.032529171
-0.036243786
-0.044575419
-0.056443249
-0.069455847
-0.078882971
-0.053496727
-0.042736414
-0.03059272
-0.021011993
-0.015402244
-0.01428569
-0.017790855
-0.025575802
-0.036710537
-0.049141709
-0.058468905
-0.037310789
-0.028091072
-0.017977831
-0.010001869
-0.0053212959
-0.0043939782
-0.0073014148
-0.01379343
-0.023055726
-0.033467058
-0.041521028
-0.02448428
-0.017169251
-0.0092304842
-0.0029067141
0.0008049185
0.0015438393
-0.00076278848
-0.0059007976
-0.013230208
-0.021372996
-0.027817121
-0.0142426
-0.0088604387
-0.0028321478
0.0021008164
0.0050584502
0.0056540382
0.0038160485
-0.00023675251
-0.0058741597
-0.011938306
-0.016757818
-0.0060278407
-0.0029585308
0.0013297343
0.0052227798
0.0077321226
0.0082597068
0.0066807491
0.0033582221
-0.00088052351
-0.0048847281
-0.0077096297
0.30881967
0.31113821
0.31485527
0.31887016
0.32187681
0.32281358
0.3213385
0.31800254
0.31397863
0.31054411
0.30867262
0.30779068
0.31038494
0.31477911
0.31941508
0.32272731
0.32347782
0.32137428
0.31723537
0.31256379
0.30885108
0.30766567
0.30495426
0.30839782
0.31473056
0.32160208
0.32662282
0.32777187
0.32455131
0.31833328
0.31149037
0.30622165
0.30468208
0.29942198
0.30449262
0.31437301
0.32555176
0.3340017
0.3359465
0.33046416
0.32013582
0.30922208
0.30109543
0.29896103
0.28984621
0.29733783
0.3129116
0.33135713
0.34600558
0.34948236
0.33970917
0.32226569
0.30463175
0.29211458
0.28904662
0.27383781
0.28455556
0.30842581
0.33882271
0.36443104
0.37058564
0.35331237
0.32345561
0.29554305
0.27686877
0.27264363
0.24787489
0.26159591
0.29569517
0.34246828
0.38462741
0.39514961
0.36585559
0.31843094
0.27700095
0.25130334
0.24633302
0.20753369
0.22117763
0.26314705
0.32692119
0.37808652
0.38868134
0.35669937
0.29373659
0.23951195
0.2096588
0.20579846
0.1487497
0.1539364
0.18390315
0.20115202
0.20124254
0.20290142
0.20075905
0.19755598
0.16794039
0.14603479
0.1474533
0.07131611
0.052706119
0.014076488
-0.076721674
-0.11813962
-0.11788699
-0.1066602
-0.030282917
0.041774854
0.059073018
0.071700381
-0.014482364
-0.066189443
-0.18596079
-0.34643418
-0.45442634
-0.46051567
-0.40479011
-0.26896216
-0.11164018
-0.038459058
-0.011375701
-0.086845714
-0.15098789
-0.28311584
-0.43782482
-0.57034083
-0.6617585
-0.5031942
-0.35984325
-0.20816001
-0.11526878
-0.081792112
-0.12748057
-0.17508575
-0.2568109
-0.34020508
-0.4096932
-0.42748483
-0.3780365
-0.29842068
-0.21473065
-0.14851737
-0.12266192
-0.13597286
-0.15795194
-0.18953056
-0.21759993
-0.23974799
-0.2452069
-0.22960338
-0.20391481
-0.17463349
-0.14575047
-0.13290436
-0.12365765
-0.12631786
-0.12965631
-0.13197222
-0.13427756
-0.13489342
-0.13319279
-0.13092937
-0.12864699
-0.12451678
-0.12250812
-0.10223689
-0.094955172
-0.086459909
-0.07924014
-0.074920692
-0.07405901
-0.076750763
-0.082731647
-0.090974029
-0.098190419
-0.10249303
-0.079500456
-0.068812886
-0.057236741
-0.047752126
-0.042024192
-0.04086905
-0.044453476
-0.052282609
-0.063135107
-0.073787589
-0.080523709
-0.059128077
-0.048359949
-0.037446182
-0.028561655
-0.023229542
-0.022163378
-0.025483288
-0.032783724
-0.042975891
-0.053434752
-0.060429012
-0.042143784
-0.032754185
-0.023655453
-0.016275896
-0.011850143
-0.010965612
-0.013723711
-0.019774038
-0.028259267
-0.037143997
-0.043428128
-0.028374598
-0.020782287
-0.013700982
-0.0078686496
-0.0043707519
-0.0036733348
-0.0058497998
-0.010646068
-0.017284521
-0.024277828
-0.029491562
-0.017241008
-0.011518533
-0.0062429899
-0.0017827331
0.0009504171
0.0015062491
-0.00019905875
-0.0039010856
-0.0089364865
-0.014055946
-0.018153369
-0.0081104862
-0.0046489347
-0.0011598317
0.0021299145
0.0042863072
0.0047405603
0.0033788805
0.00054961833
-0.0029913044
-0.0060534409
-0.0087259595
0.30783701
0.30940449
0.31176431
0.31450434
0.31661963
0.31728604
0.31623668
0.31391365
0.31121731
0.30911452
0.30734463
0.30821725
0.31089995
0.31397392
0.31623584
0.31676064
0.31531708
0.31253072
0.30952059
0.3080808
0.30424342
0.30538229
0.30911931
0.31355168
0.316887
0.31766554
0.31551275
0.31144238
0.30714319
0.30529842
0.29836822
0.29988903
0.30561808
0.31254628
0.31791488
0.31918297
0.31567189
0.30919575
0.30252658
0.29983829
0.28820129
0.29036228
0.29909078
0.3100447
0.31880132
0.32088729
0.31508136
0.30464851
0.29428127
0.29040085
0.27140099
0.27426493
0.28716464
0.30398418
0.31802578
0.3214302
0.31193238
0.29552596
0.2799983
0.27460531
0.24458744
0.24770798
0.26515582
0.28921313
0.31020446
0.31538452
0.3009412
0.27695185
0.2553388
0.2487711
0.20379208
0.20558348
0.22531786
0.25486384
0.28266215
0.28953906
0.27011713
0.23943103
0.21396609
0.20838811
0.14574173
0.14303801
0.1571673
0.1783215
0.19083362
0.19270148
0.18623192
0.16769869
0.14870612
0.14888476
0.071281964
0.059600694
0.051342487
0.024593478
-0.013435027
-0.023043703
0.0046984314
0.04148687
0.056686224
0.070239811
-0.0097588442
-0.032047447
-0.074935517
-0.15926136
-0.24013261
-0.25886641
-0.20385989
-0.11173641
-0.048607961
-0.017002243
-0.078794718
-0.10557146
-0.1637339
-0.25800397
-0.33397313
-0.35095463
-0.30038768
-0.20809987
-0.12891672
-0.090161599
-0.11983352
-0.14108421
-0.18540021
-0.24290856
-0.28337651
-0.29228286
-0.26544651
-0.21460537
-0.15892996
-0.1303822
-0.13103284
-0.14224726
-0.16339606
-0.18467617
-0.19833351
-0.20111792
-0.19228786
-0.17448463
-0.15053642
-0.13793216
-0.12158595
-0.12416415
-0.12760773
-0.12943619
-0.13024501
-0.13032616
-0.12977692
-0.12851029
-0.1250045
-0.12452724
-0.10222813
-0.099456764
-0.093979088
-0.088034224
-0.084082228
-0.083186844
-0.08566509
-0.090866983
-0.096723064
-0.10195535
-0.080649866
-0.075400933
-0.067194755
-0.059241649
-0.05418095
-0.053073288
-0.056262637
-0.063050902
-0.071724864
-0.078324694
-0.060793985
-0.054910089
-0.0468716
-0.039324355
-0.034603036
-0.033589597
-0.036562062
-0.042906783
-0.051298912
-0.057521138
-0.043871531
-0.038380222
-0.031521248
-0.025220812
-0.021307872
-0.020477777
-0.022937151
-0.028204137
-0.035209484
-0.040524081
-0.029932177
-0.025242215
-0.019815723
-0.014915606
-0.011857425
-0.011205554
-0.013140346
-0.017244498
-0.022706977
-0.026886368
-0.018516455
-0.014742593
-0.010824302
-0.0071639831
-0.0048385304
-0.0043467475
-0.0058121713
-0.008910571
-0.012918189
-0.015896224
-0.0087858623
-0.0063664615
-0.0042364833
-0.0018070982
-0.00015082195
0.00020292863
-0.00085036593
-0.0029804049
-0.0054855583
-0.0067703192
0.30821407
0.30930153
0.31075174
0.31196789
0.31236128
0.31174536
0.31043918
0.30906554
0.30815729
0.30728832
0.30799608
0.30953008
0.31078619
0.31111193
0.31028253
0.30878455
0.30805231
0.3073533
0.30421561
0.30505472
0.30718114
0.30898291
0.30946672
0.30823782
0.30614182
0.30526807
0.30429549
0.29832223
0.29940943
0.30266568
0.30547106
0.30623117
0.30429752
0.30104781
0.29982736
0.29840588
0.28811775
0.2896547
0.29461797
0.29896588
0.3001477
0.29712142
0.29211386
0.29037647
0.28821934
0.2712793
0.27327648
0.28059525
0.28710818
0.28884212
0.28428116
0.27683536
0.27462511
0.27139812
0.24441899
0.24644293
0.25629222
0.26528496
0.26771625
0.26129935
0.25121494
0.24881606
0.24460622
0.2035766
0.20430318
0.21526867
0.22582306
0.22876162
0.22104004
0.209518
0.20836909
0.20378859
0.14553244
0.14216967
0.14995609
0.15773464
0.15985457
0.15410905
0.14578443
0.14884769
0.14575479
0.071116937
0.060072811
0.056169787
0.049524504
0.047431542
0.05288152
0.058675982
0.070142844
0.071513613
-0.0098075034
-0.029622303
-0.051964857
-0.07707468
-0.083916505
-0.065301513
-0.038982133
-0.017201434
-0.0091683569
-0.07871644
-0.10184313
-0.13257164
-0.16310663
-0.17123558
-0.14863414
-0.11570533
-0.090369148
-0.077889936
-0.11976594
-0.13775331
-0.16108974
-0.18210604
-0.18768349
-0.17200034
-0.14867066
-0.13055847
-0.118874
-0.13105163
-0.14029626
-0.15098601
-0.16013102
-0.16277016
-0.15555032
-0.14561818
-0.13801472
-0.13038908
-0.12169254
-0.12348267
-0.12477718
-0.1263053
-0.12690598
-0.12512118
-0.12421683
-0.12456228
-0.12124806
-0.10232894
-0.099549225
-0.096318081
-0.094192606
-0.093461578
-0.09479687
-0.097879288
-0.10196562
-0.10214463
-0.080706445
-0.075880641
-0.071359491
-0.067815392
-0.066790796
-0.069262659
-0.073504693
-0.078338675
-0.08071382
-0.060783348
-0.055498107
-0.051092185
-0.047454633
-0.04654535
-0.048970955
-0.053195192
-0.057545444
-0.060958798
-0.043858051
-0.038934135
-0.035123136
-0.032028829
-0.031292761
-0.033321797
-0.036952573
-0.040564745
-0.044085525
-0.029850925
-0.025715741
-0.022656819
-0.02024371
-0.019679015
-0.02125868
-0.024135031
-0.026938029
-0.030176519
-0.018330078
-0.015114656
-0.012879018
-0.011114399
-0.010704873
-0.011856972
-0.013957038
-0.015963061
-0.018763621
-0.0084750059
-0.006478997
-0.0054473646
-0.0043620156
-0.0041228437
-0.0048499369
-0.0059949498
-0.0068667419
-0.009093203
0.31114448
0.30881615
0.30912968
0.30926317
0.30898897
0.30857244
0.30741902
0.30767354
0.30814909
0.3078895
0.30804928
0.30757826
0.30428026
0.3048173
0.30547127
0.30490433
0.30530295
0.30459452
0.29843298
0.29923273
0.30021856
0.29922736
0.2999859
0.29889958
0.28832617
0.28957081
0.29109503
0.28941175
0.29070943
0.28901077
0.27164483
0.27353752
0.27576735
0.27295034
0.27512604
0.27262106
0.24503051
0.24761707
0.25061503
0.24616552
0.24963969
0.24627176
0.20444435
0.20743328
0.21084834
0.20413265
0.20954706
0.20568095
0.14649735
0.14903445
0.15163042
0.14224611
0.15026591
0.14720493
0.071940003
0.072301768
0.071719751
0.060486784
0.070981846
0.071298395
-0.0094145724
-0.012685305
-0.018218251
-0.028790168
-0.017631483
-0.011927523
-0.078862839
-0.084751472
-0.093416823
-0.10033177
-0.091685566
-0.082330445
-0.12017933
-0.12584204
-0.13353201
-0.13578836
-0.13154913
-0.12297167
-0.13146473
-0.13520043
-0.13994361
-0.1385072
-0.13847656
-0.13302095
-0.12197455
-0.12379408
-0.12533881
-0.12223051
-0.12454901
-0.12244613
-0.10252567
-0.10294391
-0.10241369
-0.099188978
-0.10199225
-0.10235746
-0.080877386
-0.080447944
-0.079091074
-0.076071253
-0.078789047
-0.080346749
-0.060966022
-0.060156865
-0.058553516
-0.055874118
-0.058371447
-0.06023368
-0.044032288
-0.043173763
-0.041547496
-0.039351538
-0.041434622
-0.04321383
-0.030073212
-0.029310161
-0.027849176
-0.026142235
-0.027755204
-0.029271028
-0.018619732
-0.01804417
-0.016828989
-0.015516091
-0.016735873
-0.017967944
-0.0088737909
-0.0088208509
-0.0078751946
-0.0065115328
-0.0077210827
-0.0086019115
0.31108818
0.30847891