/*--------------------------------*- C++ -*----------------------------------*\
| =========                 |                                                 |
| \\      /  F ield         | OpenFOAM: The Open Source CFD Toolbox           |
|  \\    /   O peration     | Version:  2406                                  |
|   \\  /    A nd           | Website:  www.openfoam.com                      |
|    \\/     M anipulation  |                                                 |
\*---------------------------------------------------------------------------*/
FoamFile
{
    version     2.0;
    format      ascii;
    arch        "LSB;label=32;scalar=64";
    class       surfaceScalarField;
    location    "100";
    object      phi;
}
// * * * * * * * * * * * * * * * * * * * * * * * * * * * * * * * * * * * * * //

dimensions      [0 3 -1 0 0 0 0];

oriented        oriented;

internalField   nonuniform List<scalar> 
214131
(
-3.3167405e-06
0.00099029529
-0.00013502788
-5.7648073e-06
1.2147425e-05
0.0020781777
0.00011833445
-0.0012125033
4.6899466e-07
-3.1599032e-06
0.0012152187
-0.0023847004
-1.6413724e-07
3.282427e-07
-8.9723464e-06
0.0023935722
-0.001218005
-1.4952306e-07
0.0012190915
-9.219789e-07
-0.0024010167
5.3759832e-08
5.6407836e-09
0.0024045729
-3.5530362e-06
-0.0012239103
-3.6834573e-07
0.0012261242
-1.8281002e-06
-0.0024135308
1.0952557e-07
4.3526609e-08
0.0024191315
-5.696576e-06
-0.0012349563
-7.1985032e-07
0.0012387613
-3.0715718e-06
-0.0024353989
1.6871406e-07
1.2713092e-07
0.0024441705
-9.0092039e-06
-0.0012534357
-1.2330061e-06
0.0012596007
-4.9062056e-06
-0.0024715206
2.4084686e-07
2.5841565e-07
0.0024849988
-1.3964535e-05
-0.0012827898
-1.9653899e-06
0.0012922869
-7.5094509e-06
-0.0025287544
3.8477459e-07
4.3699069e-07
0.0025489655
-2.101013e-05
-0.001326883
-2.9098068e-06
0.0013405769
-1.0791526e-05
-0.002614737
5.1208523e-07
7.0352041e-07
0.0026434153
-3.0003224e-05
-0.0013883506
-3.973051e-06
0.001406354
-1.4043192e-05
-0.0027349441
6.4698891e-07
1.0592014e-06
0.0027724624
-3.9319484e-05
-0.0014652661
-4.7829162e-06
0.0014858881
-1.5854822e-05
-0.0028858849
7.6122044e-07
1.24655e-06
0.0029287309
-4.5100599e-05
-0.001547143
-4.9265757e-06
0.0015663227
-1.4276942e-05
-0.0030471847
9.3572142e-07
1.0734931e-06
0.0030872094
-4.2172576e-05
-0.0016160607
-4.1518259e-06
0.0016293272
-9.1375767e-06
-0.0031832384
1.0415715e-06
4.1776671e-07
0.0032110762
-2.9447361e-05
-0.0016577831
-2.9138453e-06
0.0016635799
-2.9020564e-06
-0.0032650043
1.1160754e-06
-4.4015918e-07
0.0032775984
-1.3343248e-05
-0.0016713131
-1.8139393e-06
0.001671208
1.9039896e-06
-0.0032908852
1.1331503e-06
-1.0978323e-06
0.0032916769
-8.3208406e-07
-0.0016651203
-1.0946812e-06
0.0016616926
4.5117434e-06
-0.0032780632
1.1002866e-06
-1.4552482e-06
0.0032723287
6.0815548e-06
-0.0016490656
-6.1705319e-07
0.0016444269
5.2498301e-06
-0.0032462591
1.0754019e-06
-1.620224e-06
0.0032381722
8.6707078e-06
-0.0016302295
-2.7007132e-07
0.0016255828
4.9126951e-06
-0.0032088326
1.0661151e-06
-1.6866517e-06
0.0032006558
8.8136422e-06
-0.0016122089
-1.6690227e-07
0.0016079918
4.3777786e-06
-0.0031726148
1.1399395e-06
-1.6559672e-06
0.0031651952
7.9693681e-06
-0.001595943
-3.133953e-07
0.0015920977
4.1511524e-06
-0.0031394398
1.2706826e-06
-1.609752e-06
0.0031327024
7.0900398e-06
-0.0015807228
-6.3198637e-07
0.0015769091
4.4419936e-06
-0.0031081378
1.6287483e-06
-1.7781466e-06
0.0031014852
6.8254925e-06
-0.0015649909
-1.1062057e-06
0.0015607599
5.335829e-06
-0.0030761052
2.2548002e-06
-2.2531862e-06
0.0030684842
7.6360328e-06
-0.0015428036
-2.5333124e-06
0.0015253385
2.0002011e-05
3.6688095e-06
-0.0030280905
-4.0122559e-06
0.0029920364
3.6407483e-05
-9.5891179e-06
-9.6689418e-05
2.5605756e-05
0.0033563347
1.4165861e-05
-2.1102566e-05
-1.6143099e-05
1.4319504e-05
0.0029643342
3.9873137e-05
-3.0116786e-05
-9.886777e-06
7.1237398e-06
0.0028588417
2.7193533e-05
-1.4547484e-05
5.5389681e-08
-2.1187873e-06
0.0027943285
1.3935162e-05
-3.685351e-05
9.9323526e-06
-1.1776688e-05
0.0028850346
3.3294522e-05
-1.5502444e-05
1.6155617e-05
-1.6017763e-05
0.0030170288
3.6890234e-05
9.6695493e-05
9.2218624e-05
0.0022814401
6.2223386e-05
-0.0033908922
2.0479721e-07
3.150985e-07
4.009294e-07
1.1506765e-06
0.003389057
-6.547563e-06
-0.011454348
-9.5494301e-06
4.0509199e-05
0.011345945
0.00012948517
-1.6958356e-05
-1.2049854e-06
2.7255969e-06
-2.7907143e-05
-2.6678698e-06
1.6218643e-06
-2.1180741e-05
-0.011290594
-3.5860581e-05
2.0971671e-05
0.011244833
8.15855e-05
-1.4315432e-05
5.9444082e-06
9.7811357e-06
1.3676559e-05
-0.011110229
3.5913367e-08
-2.0836673e-05
0.011072257
4.6310869e-05
-2.3888746e-05
-0.011432196
-4.0595279e-05
0.011356967
0.00011945707
3.6180079e-05
-2.1641269e-05
3.9336799e-06
2.8715036e-06
-0.0028512511
-4.8172502e-06
9.6388116e-06
-6.3154639e-06
2.215063e-05
0.0028308112
-0.0024326401
-2.0776463e-07
9.2883404e-07
-1.0974846e-06
0.0024331023
9.2355525e-07
-0.0033904003
7.8305712e-07
-1.3441085e-06
0.0033927715
-2.4878603e-06
4.271867e-06
9.8839436e-07
-0.011296507
-1.7945779e-06
0.011284642
-1.2380993e-05
1.2945098e-06
6.4593803e-06
8.953595e-06
3.6316967e-06
-7.7126779e-06
9.3128394e-06
1.4831818e-06
1.3680373e-07
-0.011208723
7.3960141e-07
0.011199605
-2.1183457e-05
2.3025273e-07
1.3668751e-05
1.5285281e-05
3.1842008e-05
-0.01105356
3.516592e-07
-1.098402e-06
0.011051597
-2.7801324e-05
8.1296222e-07
-0.011310002
1.4335474e-06
0.011297691
-1.4220653e-05
5.490875e-07
1.8464185e-06
1.2181401e-05
1.0898589e-05
2.9224516e-06
-0.0028205719
-8.4036384e-07
1.3094964e-06
0.0028183201
-9.058255e-07
-0.0024361738
-5.9710022e-07
3.1720545e-07
0.0024383809
-1.8283331e-06
1.9360125e-06
-0.0034056659
1.739008e-06
-3.2721982e-06
0.0034117144
-6.2042796e-06
1.14793e-05
5.3921672e-06
-0.011295493
-2.3080647e-05
0.011324059
-7.9191227e-05
1.0389878e-05
1.2898242e-05
1.5165826e-05
7.2284516e-06
-7.778543e-07
1.3037917e-05
1.3717926e-05
1.761506e-05
-0.011208181
-9.3346236e-06
0.011232284
-0.00010445497
1.2693785e-05
2.2573175e-05
2.4376687e-05
7.817106e-05
-0.011062481
6.0578341e-07
8.5146196e-06
0.011086845
-0.00011018409
1.1994733e-05
-0.011306703
2.240809e-05
0.011332589
-9.3575278e-05
-1.6569126e-05
1.2596036e-05
1.9972119e-05
1.8462745e-05
8.0018568e-06
-0.0028278179
-5.1832368e-06
4.7248501e-06
0.0028302615
-9.7714926e-06
-0.0024484248
-1.4862021e-06
8.0874415e-07
0.0024529685
-3.7887908e-06
3.2609759e-06
-0.0034361415
3.0419125e-06
-5.7812065e-06
0.0034467407
-1.0922883e-05
2.0504191e-05
1.0346525e-05
-0.011369194
-4.4693056e-05
0.011432167
-0.0001500034
2.0512616e-05
2.1820258e-05
2.4485984e-05
1.1934275e-05
5.1530692e-06
1.812852e-05
2.813966e-05
3.4720124e-05
-0.011271151
-1.8720359e-05
0.011327082
-0.00020089493
2.7662719e-05
3.6129466e-05
3.8419341e-05
0.00014126421
-0.011124473
8.9978698e-07
1.7397319e-05
0.01117854
-0.00021192353
2.4701902e-05
-0.011374381
4.3635009e-05
0.011433585
-0.00017951206
-3.3237136e-05
2.4771147e-05
3.1760576e-05
2.9823267e-05
1.4189397e-05
-0.0028502912
-1.0058224e-05
8.620118e-06
0.0028569886
-1.9299834e-05
-0.002471033
-2.7229659e-06
1.4985484e-06
0.0024787265
-6.4226527e-06
5.175384e-06
-0.0034873013
4.9247413e-06
-9.431265e-06
0.0035044557
-1.775094e-05
3.3579734e-05
1.7406364e-05
-0.011515865
-7.4502321e-05
0.011623978
-0.00024903856
3.4706312e-05
3.4904952e-05
3.8506044e-05
1.8812128e-05
1.2817497e-05
2.5801643e-05
4.8517864e-05
5.8112075e-05
-0.011402357
-3.1432688e-05
0.011501708
-0.00033811188
4.8618689e-05
5.6640725e-05
5.9734526e-05
0.00023290659
-0.011250946
1.3013005e-06
2.9353367e-05
0.01134716
-0.00035790849
4.2517469e-05
-0.011513142
7.2875079e-05
0.011616853
-0.00030030408
-5.6004974e-05
4.1898735e-05
4.9557642e-05
4.6933636e-05
2.3102885e-05
-0.0028902133
-1.7007598e-05
1.4219492e-05
0.0029026715
-3.2669018e-05
-0.002508384
-4.5519692e-06
2.5336509e-06
0.002520746
-1.0316121e-05
7.794402e-06
-0.0035681302
7.7762115e-06
-1.4580774e-05
0.0035945392
-2.7280458e-05
5.2072707e-05
2.7299246e-05
-0.011761523
-0.00011640223
0.01193364
-0.0003886837
5.4634712e-05
5.3220679e-05
5.8338745e-05
2.8318181e-05
2.3427921e-05
3.6733605e-05
7.7379223e-05
9.0961965e-05
-0.011629758
-4.9373892e-05
0.011793572
-0.00053551543
7.8236064e-05
8.5902731e-05
9.0228272e-05
0.00036317142
-0.011471305
1.8268538e-06
4.625261e-05
0.011631435
-0.0005690508
6.7605693e-05
-0.011750112
0.00011396995
0.011918497
-0.00047254052
-8.8088045e-05
6.6021406e-05
7.486707e-05
7.1184837e-05
3.5662169e-05
-0.0029548915
-2.6755383e-05
2.2080841e-05
0.0029753973
-5.1445726e-05
-0.0025672045
-7.2274319e-06
4.0096422e-06
0.002586055
-1.5756637e-05
1.0982636e-05
-0.0036891596
1.1337171e-05
-2.1106458e-05
0.0037271266
-3.9259109e-05
7.5564298e-05
3.9746384e-05
-0.012146586
-0.00016942808
0.012404276
-0.0005681463
7.9996497e-05
7.603352e-05
8.3263154e-05
4.0022352e-05
3.6929741e-05
5.063531e-05
0.000114509
0.00013348458
-0.011999517
-7.1988975e-05
0.012255374
-0.00079681834
0.00011641668
0.00012299265
0.00012902382
0.00053139095
-0.011833302
2.7020817e-06
6.8241421e-05
0.01208614
-0.00085115142
9.9820722e-05
-0.012128912
0.00016643155
0.012386766
-0.00069798278
-0.00012902773
9.6914497e-05
0.00010695462
0.00010176324
5.1595382e-05
-0.0030536778
-3.8975606e-05
3.1915723e-05
0.0030845376
-7.5397919e-05
-0.0026548598
-1.0586601e-05
5.907434e-06
0.0026818481
-2.2549892e-05
1.4163484e-05
-0.0038571595
1.4833634e-05
-2.7626208e-05
0.0039068682
-5.1354466e-05
9.9501513e-05
5.2010935e-05
-0.012709028
-0.00022403985
0.013059913
-0.00075719333
0.00010614758
9.836064e-05
0.00010811846
5.100117e-05
5.0780354e-05
6.4552006e-05
0.00015333166
0.00017715285
-0.012563911
-9.5895859e-05
0.01292784
-0.0010827967
0.00015658335
0.00016037124
0.0001683896
0.00070747961
-0.012392486
3.3661963e-06
9.0191635e-05
0.012756213
-0.001163604
0.00013348272
-0.012695282
0.00021961056
0.013054754
-0.00094144856
-0.0001715752
0.00012890346
0.0001393549
0.00013227298
6.8084133e-05
-0.0031941355
-5.1138558e-05
4.1684772e-05
0.0032357211
-0.00010052263
-0.0027760808
-1.3962124e-05
7.879334e-06
0.0028112934
-2.9500412e-05
1.5979048e-05
-0.0040667134
1.6775164e-05
-3.1468862e-05
0.0041235589
-5.8560154e-05
0.00011367784
5.8637672e-05
-0.013448366
-0.00025479468
0.013858448
-0.00087029794
0.00012222263
0.00010966101
0.00012155482
5.5741321e-05
5.9280429e-05
7.2293888e-05
0.00017705862
0.00020199329
-0.013341257
-0.00010963844
0.01379599
-0.0012768944
0.00018159744
0.00017985282
0.00018947578
0.00081137805
-0.013175175
4.006476e-06
0.0001017649
0.013641668
-0.0013858137
0.00015441091
-0.013457306
0.00024924684
0.013890619
-0.0010975095
-0.00019543853
0.0001483013
0.00015692013
0.00014820807
7.8507572e-05
-0.0033736976
-5.7711459e-05
4.7136063e-05
0.003421914
-0.00011668863
-0.0029264278
-1.5919391e-05
9.1710255e-06
0.0029664536
-3.3764471e-05
1.4654276e-05
-0.0042902687
1.533716e-05
-2.9179146e-05
0.0043433956
-5.4421675e-05
0.00010447858
5.2728409e-05
-0.014268819
-0.00023382837
0.014652832
-0.00080139092
0.00011339046
9.7520207e-05
0.0001097865
4.8370335e-05
5.4904478e-05
6.6820609e-05
0.00016229484
0.00018795641
-0.014269193
-0.00010287023
0.014723114
-0.0012020766
0.00016744804
0.00016001756
0.00016988793
0.00074494385
-0.014131111
4.7896249e-06
9.3354836e-05
0.014597735
-0.0013134779
0.00014265986
-0.014334293
0.00022803113
0.014756232
-0.0010242998
-0.00018115822
0.00013612774
0.00014100092
0.00013194353
7.4160526e-05
-0.0035686467
-5.1813716e-05
4.2881379e-05
0.0036128286
-0.00011000349
-0.0030858277
-1.4541619e-05
8.7569804e-06
0.0031231784
-3.1960813e-05
9.6854614e-06
-0.0044802679
1.0498043e-05
-2.0350092e-05
0.0045173502
-3.7358165e-05
6.9761937e-05
3.3402168e-05
-0.014984858
-0.00016239856
0.015244197
-0.00053266722
7.7192669e-05
6.246612e-05
7.3079483e-05
2.9512021e-05
3.7634514e-05
4.9716064e-05
0.0001060478
0.00013278998
-0.015107273
-7.7322057e-05
0.015373751
-0.00075697895
0.00011101374
0.00010307224
0.00011174904
0.00049528435
-0.014979838
8.6441268e-06
6.1388815e-05
0.015229213
-0.00081818218
9.57148e-05
-0.015122961
0.00015582959
0.015397555
-0.00067503801
-0.00012258137
8.9942378e-05
9.3196507e-05
8.5017623e-05
5.2917782e-05
-0.0037336726
-3.2527056e-05
2.7998395e-05
0.003762099
-7.732386e-05
-0.0032209929
-9.6544592e-06
6.4837439e-06
0.0032472746
-2.3351321e-05
3.1302153e-06
-0.0045972052
4.6423185e-06
-9.1718941e-06
0.0046135649
-1.5209533e-05
2.6491453e-05
9.8077531e-06
-0.015418851
-7.7057188e-05
0.015508296
-0.00018776937
3.1624605e-05
2.1843503e-05
2.9897854e-05
8.4094222e-06
1.6076186e-05
2.9405607e-05
3.9163881e-05
7.0546072e-05
-0.015513168
-4.9967908e-05
0.015533921
-0.00021093458
4.281134e-05
3.9676201e-05
4.5984156e-05
0.00019219973
-0.015343221
1.6679328e-05
1.9835797e-05
0.015331107
-0.00021877419
3.8130264e-05
-0.015563894
6.6227155e-05
0.015625151
-0.00022173888
-5.0299402e-05
3.3807465e-05
3.8610147e-05
3.2063667e-05
2.4984611e-05
-0.0038321914
-8.7297034e-06
9.3632965e-06
0.0038416507
-3.5351913e-05
-0.0033045591
-3.6908279e-06
3.5311079e-06
0.0033164712
-1.1815796e-05
-2.2947314e-06
-0.0046366648
2.7920734e-07
-3.400854e-07
0.00463643
2.4602379e-06
-6.2044445e-06
-6.297626e-06
-0.015522415
-1.2853681e-05
0.015474095
7.7682504e-05
-3.5102206e-06
-7.4071139e-06
-2.1046717e-06
-4.8211487e-06
-7.778944e-07
1.3698702e-05
-1.2372145e-05
1.938047e-05
-0.015453809
-2.8207814e-05
0.015295438
0.00020238007
-1.0921739e-05
-8.1204549e-06
-4.7721101e-06
-4.628968e-05
-0.015215488
2.6509217e-05
-2.0003695e-05
0.015024507
0.00022969808
-6.0661487e-06
-0.015595897
-6.8638447e-06
0.015491778
0.00011761484
1.5791018e-05
-8.4643025e-06
-2.1408106e-06
-6.5601332e-06
2.4951084e-06
-0.0038624129
7.9827415e-06
-4.4866073e-06
0.0038578895
-1.5456828e-06
-0.0033332917
7.7664367e-07
1.0961227e-06
0.0033335621
-2.0853118e-06
-5.4257495e-06
-0.0046209181
-1.7816652e-06
4.4199001e-06
0.0046111736
1.2467487e-05
-2.4176036e-05
-1.2775121e-05
-0.01537686
2.4565848e-05
0.015241286
0.0002333189
-2.3854606e-05
-2.2982243e-05
-2.0307262e-05
-9.577921e-06
-1.2008745e-05
2.9855518e-06
-4.1396977e-05
-7.5778259e-06
-0.015084799
-1.8507664e-05
0.014843914
0.00041919495
-4.2475438e-05
-3.4743018e-05
-3.4080713e-05
-0.00017731687
-0.014786377
3.616359e-05
-4.8271617e-05
0.014525875
0.00044946913
-3.2122254e-05
-0.015331789
-5.6322911e-05
0.015134216
0.00031251999
5.9436963e-05
-3.2286332e-05
-2.5912513e-05
-2.7956391e-05
-1.0659695e-05
-0.0038456076
1.5643065e-05
-1.1040392e-05
0.0038330047
1.8665976e-05
-0.0033227224
2.9495042e-06
-4.2661316e-07
0.0033162379
4.0560077e-06
-6.5312797e-06
-0.004576907
-2.0847376e-06
5.8218849e-06
0.004563577
1.6118467e-05
-3.1358299e-05
-1.2992825e-05
-0.015078859
3.7297815e-05
0.014900006
0.00030715793
-3.3178211e-05
-2.9145503e-05
-2.8660487e-05
-9.2487018e-06
-1.8307861e-05
-2.8357656e-06
-5.3765529e-05
-1.6427272e-05
-0.014591915
-1.5438131e-05
0.01434183
0.00048490041
-5.653827e-05
-4.5972361e-05
-4.6851793e-05
-0.00023760206
-0.014262285
4.4539277e-05
-6.8058812e-05
0.014006951
0.00051634295
-4.3126589e-05
-0.014915596
-8.2892224e-05
0.014689702
0.00038112831
8.4407984e-05
-4.1311764e-05
-3.6025091e-05
-3.6209474e-05
-1.609955e-05
-0.0038016541
1.7603101e-05
-1.2393468e-05
0.0037847202
2.7879229e-05
-0.0032917569
3.3734166e-06
-1.1656059e-06
0.0032826357
7.0099529e-06
-6.4700003e-06
-0.0045242937
-1.5909138e-06
5.2661395e-06
0.0045108156
1.629929e-05
-3.2305575e-05
-1.0514448e-05
-0.014713396
3.6646842e-05
0.014526392
0.0003206708
-3.5608006e-05
-3.0010245e-05
-3.0875379e-05
-6.9904316e-06
-1.9845516e-05
-4.1447911e-06
-5.7172152e-05
-1.5044409e-05
-0.014102301
-1.8054537e-05
0.013878827
0.00047501254
-6.0925489e-05
-4.9365297e-05
-5.1007918e-05
-0.00025269272
-0.013766935
5.1333778e-05
-7.9383511e-05
0.013545777
0.00050192587
-4.5579489e-05
-0.014465903
-9.5889714e-05
0.014250803
0.00037730692
9.7496088e-05
-4.2751319e-05
-3.8117649e-05
-3.7199887e-05
-1.7285093e-05
-0.0037425629
1.7343742e-05
-1.1624109e-05
0.003723419
3.076145e-05
-0.0032545432
3.0651319e-06
-1.4686328e-06
0.0032452888
7.7316587e-06
-5.891415e-06
-0.0044731324
-9.884612e-07
4.0555806e-06
0.0044606514
1.5361491e-05
-3.0773141e-05
-7.822944e-06
-0.01434369
2.9754131e-05
0.014169409
0.00030356838
-3.5009573e-05
-2.8767386e-05
-3.0271374e-05
-4.7439644e-06
-1.866071e-05
-2.9088149e-06
-5.7323337e-05
-8.8055131e-06
-0.013674076
-2.2625447e-05
0.013489221
0.00043451577
-6.1100742e-05
-4.9175903e-05
-5.0586953e-05
-0.00024207737
-0.013345122
5.6701268e-05
-8.596904e-05
0.013165355
0.00045119862
-4.5023708e-05
-0.014048913
-0.00010157746
0.013862947
0.00034403057
0.00010354959
-4.1449565e-05
-3.738513e-05
-3.5999415e-05
-1.7054232e-05
-0.003675829
1.7155941e-05
-1.1106997e-05
0.0036558967
3.098833e-05
-0.0032187842
2.7299793e-06
-1.5947558e-06
0.0032103914
7.2657499e-06
-5.3461799e-06
-0.0044259591
-3.6521654e-07
2.7969213e-06
0.0044143312
1.4595553e-05
-2.9415109e-05
-5.8252379e-06
-0.014006594
1.9987991e-05
0.013857701
0.00027530586
-3.4182967e-05
-2.7681184e-05
-2.9063269e-05
-2.995788e-06
-1.670157e-05
-4.396358e-07
-5.5355306e-05
9.7658888e-08
-0.013324592
-2.8642905e-05
0.013180055
0.00038058115
-5.8780253e-05
-4.6274273e-05
-4.7024413e-05
-0.00022084531
-0.013005947
6.080253e-05
-8.8625933e-05
0.012866461
0.00038824812
-4.3367363e-05
-0.01369421
-0.00010277473
0.013543916
0.00030001292
0.00010463051
-3.9586606e-05
-3.4939246e-05
-3.352308e-05
-1.6503638e-05
-0.0036077333
1.7619745e-05
-1.1612514e-05
0.003588401
2.9868531e-05
-0.0031867996
2.6218955e-06
-1.6463583e-06
0.0031792818
6.5133734e-06
-5.1642469e-06
-0.0043811393
4.1242775e-07
1.7005891e-06
0.0043697655
1.4437602e-05
-2.8605342e-05
-4.1550286e-06
-0.013725348
6.4867913e-06
0.013613373
0.00023759492
-3.3876436e-05
-2.6663386e-05
-2.6968483e-05
-1.0819123e-06
-1.4450152e-05
3.79956e-06
-5.256878e-05
1.2610492e-05
-0.013055959
-3.7117035e-05
0.012953316
0.00031757521
-5.569918e-05
-4.0989056e-05
-4.1083297e-05
-0.00019615628
-0.01274655
6.3878242e-05
-8.6888649e-05
0.012645937
0.00031989363
-4.1165855e-05
-0.013413388
-9.8442092e-05
0.013305056
0.00024507917
0.00010007893
-3.745875e-05
-3.033788e-05
-2.9272278e-05
-1.5935013e-05
-0.0035440611
1.8279537e-05
-1.2580882e-05
0.003526511
2.7824762e-05
-0.0031576802
2.8278955e-06
-1.7987706e-06
0.0031505328
6.1035649e-06
-5.544863e-06
-0.0043376523
1.429279e-06
6.0961445e-07
0.0043269894
1.4169688e-05
-2.6693807e-05
-1.2076978e-06
-0.013529526
-2.2126865e-05
0.013491029
0.00015635924
-3.3105438e-05
-2.2946402e-05
-1.9493137e-05
3.746215e-06
-1.0649614e-05
1.4796272e-05
-4.9586554e-05
3.8610371e-05
-0.012875557
-5.4071375e-05
0.012831915
0.00022440636
-5.3055021e-05
-3.0587791e-05
-3.1910039e-05
-0.00017199778
-0.012565187
6.6197977e-05
-7.5242912e-05
0.012507579
0.00023883539
-3.8410619e-05
-0.013224779
-7.7702797e-05
0.013186849
0.00014712626
8.0667637e-05
-3.4842859e-05
-1.9702252e-05
-1.9015573e-05
-1.4153413e-05
-0.0034918456
1.7498842e-05
-1.2517875e-05
0.0034785884
2.246068e-05
-0.0031292775
3.4054439e-06
-2.1811023e-06
0.0031221521
5.8905179e-06
-1.0384472e-05
-1.4318756e-07
-0.0042998376
3.0730188e-06
0.0042875285
1.9767482e-05
-1.7966594e-05
1.4324486e-05
-8.2608927e-05
-3.1034733e-05
-2.3556238e-05
-5.291689e-06
1.8533547e-05
-0.013521234
0.0034746065
0.0034223888
0.0033718202
0.0032967336
2.5229172e-05
1.0210319e-05
4.8021072e-05
-3.2743919e-05
9.8070994e-05
-8.2448949e-05
0.00012491465
0.0032743658
0.0032210002
0.003102667
0.0031372985
-0.012801416
-4.7734407e-05
1.238391e-05
-6.1742427e-06
-0.00016926965
6.8184869e-05
-5.1156424e-05
0.00017094312
0.003153155
0.0031746436
0.0030713951
0.0030584322
-0.012476142
-1.2187286e-05
2.66933e-05
-2.4560301e-05
5.724374e-06
-0.013181379
0.0033368458
0.0033691388
0.0032283791
0.003185534
-1.258002e-05
3.9875766e-05
3.8685304e-05
-1.0222461e-05
-0.0034831098
4.1716068e-06
-3.7297155e-06
0.0035060917
-1.3173999e-05
7.2689011e-06
-0.0031007175
-7.4629736e-06
0.0030862264
1.4681118e-05
-2.0965401e-05
-2.3063923e-05
1.7434395e-05
0.0030864687
1.6321927e-05
-3.6114718e-05
-2.7221169e-05
0.0028568461
2.1609196e-05
2.8788716e-05
-1.8894349e-05
-8.9455186e-06
0.002780083
5.9014857e-06
1.0474389e-05
-6.6102156e-06
-1.9808171e-06
1.1718341e-06
0.0027621127
3.1441263e-06
-3.268734e-06
9.7444678e-09
-3.3466649e-07
0.0027588009
1.4416144e-06
-8.6341695e-06
1.9949814e-06
-2.7006181e-06
0.0027638239
4.247332e-06
-2.3765001e-05
8.958748e-06
-1.204016e-05
0.0027902721
1.3938401e-05
-3.481443e-05
2.7205418e-05
-2.9251083e-05
0.0028996432
3.3424609e-05
-2.2668022e-05
2.3443009e-05
-3.0738707e-06
0.0031992642
2.7703762e-05
-0.0028949106
-1.1417198e-06
-1.1985804e-06
6.5858282e-06
6.6728903e-06
0.0028842061
-0.00011690331
-0.011356734
-9.1964869e-05
9.4920246e-05
0.011344443
0.00012753965
-0.011222711
-0.00013118218
-7.6302474e-05
5.4622618e-05
0.011279262
9.7885243e-05
-0.011117755
-7.5036072e-05
-3.4484298e-05
1.66978e-05
0.011160764
5.1320488e-05
-0.011090682
-5.3526157e-05
2.49343e-07
-1.6752875e-05
0.011124493
3.7668419e-05
-0.011160745
-0.00010505603
3.4993749e-05
-5.4638921e-05
0.011213509
7.3439024e-05
-0.00014360939
-0.011291085
7.6734179e-05
-9.4692269e-05
0.011336004
0.00011825384
-0.011519866
-3.0233467e-05
0.011418612
0.00011347897
9.1277175e-05
-1.1460302e-05
-1.8754331e-06
-2.8276806e-06
-1.4480871e-05
-4.1890702e-05
-2.7877914e-06
3.3144763e-06
-0.0032362699
2.6936845e-07
1.5977039e-06
3.5796582e-07
1.840008e-06
0.0032324219
2.0284315e-06
2.0355257e-06
-0.0028776474
-2.2916495e-06
0.0028783774
-2.2830436e-06
6.0128858e-06
1.5391854e-06
-0.011303821
7.272912e-06
0.011281314
9.2264276e-06
-3.9047311e-06
-0.011309304
-1.1219921e-05
1.0249522e-05
0.01130553
1.0498981e-05
1.1462444e-05
-0.011189249
-6.4639201e-06
3.7210181e-06
0.011204967
-2.2734859e-05
2.1840629e-05
-0.011147633
4.5901743e-07
-4.105533e-06
0.011163966
-3.2850129e-05
5.5837718e-07
-0.011248446
7.3363632e-06
-1.0528714e-05
0.011258827
-5.9492564e-06
-8.2452746e-07
-0.011336119
1.2008021e-05
-7.5532885e-06
0.011318544
1.589117e-05
1.6545103e-08
-0.011354597
0.011330865
-2.8050428e-06
-1.6362836e-06
3.7752033e-06
6.1456704e-06
6.4477547e-06
2.1303469e-06
6.8888708e-06
1.3496168e-05
-9.307674e-06
1.0110532e-06
-0.0032332705
-1.6606415e-06
7.1292567e-07
0.0032348058
-1.3793462e-06
4.8239144e-06
4.8403063e-06
-0.0028877094
-7.0405193e-06
0.0028923795
-7.0625168e-06
6.7347725e-05
5.2627462e-05
-0.011281113
-5.5447292e-05
0.011300076
-8.1653919e-05
0.00010196553
-0.011302579
5.3483142e-05
-4.5055683e-05
0.011312071
-0.00011772638
0.00013005141
-0.011204695
3.3159562e-05
-1.7413281e-05
0.011209363
-0.00014859303
0.00013713044
-0.011166195
7.3137428e-07
1.6572992e-05
0.011170198
-0.00015654595
0.00011761975
-0.01125712
-3.1849285e-05
4.4485664e-05
0.011263665
-0.00013472964
8.6006765e-05
-0.011316248
-5.2388304e-05
5.5000304e-05
0.011330003
-0.00010010606
1.2406803e-05
-0.011336143
0.011358964
-6.3703341e-05
-5.2490764e-05
1.1874341e-05
1.2823397e-05
1.3269374e-05
9.4972223e-06
1.3014596e-05
1.9637437e-05
2.3169354e-06
1.9514254e-06
-0.0032477895
-4.4121476e-06
1.5435917e-06
0.0032528961
-3.9492237e-06
8.3530555e-06
8.3670763e-06
-0.0029123607
-1.2615414e-05
0.0029211845
-1.2648293e-05
0.00012939053
0.00010343064
-0.011335058
-0.00011562588
0.011388643
-0.00016864521
0.00020761386
-0.011332608
0.00011605955
-0.00010159549
0.01136793
-0.00025474743
0.00026519152
-0.011219707
7.612394e-05
-4.0788413e-05
0.011239821
-0.00031840683
0.00027833255
-0.011178247
1.083035e-06
3.9410474e-05
0.011194731
-0.00033296763
0.00024081961
-0.011278252
-7.4256191e-05
0.00010069464
0.011304901
-0.00029138358
0.00017121606
-0.011357298
-0.00011457692
0.00011499311
0.011401806
-0.00021346012
2.3583335e-05
-0.011402428
0.011461991
-0.00012422559
-0.0001031126
2.1088384e-05
2.2412934e-05
2.2245813e-05
1.7790574e-05
2.1096177e-05
2.8440369e-05
1.2533787e-05
3.1588282e-06
-0.0032770726
-7.8941391e-06
2.665165e-06
0.0032864678
-7.141694e-06
1.3433371e-05
1.3421233e-05
-0.0029549469
-2.0563735e-05
0.0029695618
-2.0631468e-05
0.00021452708
0.00017256273
-0.011461607
-0.00019667578
0.011559726
-0.00028626559
0.00035342672
-0.011418664
0.00020052601
-0.00017834893
0.011492188
-0.00044586846
0.00045861749
-0.011271096
0.00013493147
-7.2820132e-05
0.011320888
-0.0005675478
0.00048298527
-0.011221064
1.5759248e-06
7.07379e-05
0.011264735
-0.00059578748
0.00041376613
-0.011344586
-0.00013223885
0.00017695124
0.011404836
-0.00051545262
0.0002876817
-0.0114636
-0.00019843936
0.00019577272
0.011550161
-0.0003682105
3.8182589e-05
-0.011545612
0.011651334
-0.00020645701
-0.00017201528
3.4109627e-05
3.6817904e-05
3.5285784e-05
2.9527988e-05
3.2840831e-05
4.1729921e-05
2.5797732e-05
4.8826087e-06
-0.0033261263
-1.2957384e-05
4.3498257e-06
0.0033416935
-1.1734878e-05
2.0502097e-05
2.0481488e-05
-0.0030229796
-3.1694713e-05
0.0030455652
-3.1778028e-05
0.0003334266
0.00026908827
-0.011686521
-0.00031115115
0.011850592
-0.00045313506
0.00056309289
-0.011592438
0.00032158232
-0.00029029071
0.011731533
-0.00072982228
0.00074526245
-0.011394196
0.00022196727
-0.00012073451
0.01150475
-0.00095323122
0.00078870718
-0.01133067
2.2909571e-06
0.00011763298
0.01143314
-0.0010069005
0.00066676574
-0.01149007
-0.00021813182
0.00028821928
0.011613542
-0.00085624873
0.0004525196
-0.011664197
-0.00031886185
0.00030985983
0.011817261
-0.000592594
5.8226284e-05
-0.011789698
0.011960355
-0.00032120348
-0.00026817222
5.2265561e-05
5.7067545e-05
5.3289196e-05
4.5857039e-05
4.9066703e-05
6.0464986e-05
4.3944597e-05
7.3060289e-06
-0.0034035594
-1.9991927e-05
6.6885401e-06
0.0034277009
-1.8170609e-05
2.9263914e-05
2.931175e-05
-0.0031251392
-4.5691147e-05
0.0031578343
-4.5753986e-05
0.00048509297
0.00039199921
-0.012057243
-0.00046019408
0.012315755
-0.00067244727
0.00084382247
-0.011918268
0.00048388133
-0.00044436125
0.012169201
-0.0011308487
0.001145485
-0.011664471
0.00034452732
-0.00018920082
0.011895203
-0.0015282801
0.0012202888
-0.01158421
3.39961e-06
0.00018437105
0.011808865
-0.0016291937
0.0010140359
-0.011785688
-0.00033911381
0.00044155401
0.012025639
-0.0013528475
0.00066765468
-0.012014736
-0.0004805453
0.00045867221
0.01227108
-0.00089881368
8.3567425e-05
-0.012174768
0.012431558
-0.00046760495
-0.00039060816
7.5069481e-05
8.2402972e-05
7.5393455e-05
6.6367155e-05
6.8991051e-05
8.4025824e-05
6.6852099e-05
1.028635e-05
-0.0035192249
-2.879355e-05
9.6623379e-06
0.0035541945
-2.6233062e-05
3.7982856e-05
3.8122841e-05
-0.0032678854
-5.9788678e-05
0.0033110026
-5.9785823e-05
0.00064218634
0.00051854578
-0.012629244
-0.00062003858
0.013000866
-0.00091230484
0.0011565571
-0.012495626
0.0006628733
-0.00062162799
0.012928046
-0.0016307856
0.0016278756
-0.012241602
0.00049234311
-0.00027703089
0.012766959
-0.0023694642
0.0017546348
-0.012163616
4.2297717e-06
0.00026952512
0.01270516
-0.0025707832
0.001417367
-0.012358182
-0.00048648356
0.00061765918
0.012842346
-0.0020332864
0.00089934926
-0.012591988
-0.00065980605
0.00061826564
0.012986942
-0.001251996
0.00010973255
-0.012739922
0.013092494
-0.00061990223
-0.00051753506
9.8170537e-05
0.00010767472
9.6809324e-05
8.7148223e-05
8.8343059e-05
0.00010778783
9.0542691e-05
1.3224906e-05
-0.0036794843
-3.7710349e-05
1.2686374e-05
0.0037254002
-3.441115e-05
4.2969863e-05
4.3259664e-05
-0.0034469769
-6.8238168e-05
0.0034964157
-6.8137615e-05
0.00073550541
0.00059205362
-0.013423879
-0.00072079691
0.013888249
-0.0010739802
0.0013842703
-0.013497008
0.00079561205
-0.00078416712
0.0141573
-0.002059599
0.0020465739
-0.013424249
0.00064431286
-0.00037285009
0.01404504
-0.0029420952
0.002222346
-0.013349789
1.746276e-05
0.00034251424
0.013922822
-0.003158532
0.0017514207
-0.013481619
-0.00062660048
0.00077685952
0.014154245
-0.0025777012
0.0010485768
-0.013466428
-0.00079470129
0.00072022614
0.014029406
-0.001539864
0.00012598171
-0.013486174
0.013900028
-0.00071142046
-0.000592669
0.00011130828
0.00012125384
0.00010697624
9.8915471e-05
9.7579162e-05
0.0001210097
0.00010506718
1.4863031e-05
-0.0038786
-4.2866554e-05
1.4405767e-05
0.0039309385
-3.9413499e-05
3.9763087e-05
4.0221505e-05
-0.0036389561
-6.3511322e-05
0.0036852579
-6.3265537e-05
0.00067494849
0.00054219946
-0.014373499
-0.00067961688
0.014839742
-0.0010078358
0.0012981104
-0.014779443
0.00076937167
-0.00073991256
0.01521522
-0.0017673121
0.001834142
-0.01447733
0.00058868144
-0.00035048412
0.014647043
-0.0022452258
0.0019746446
-0.014297627
5.9379574e-05
0.00024213271
0.014407077
-0.0023886914
0.0016162321
-0.014688331
-0.00050982487
0.00069520909
0.014973516
-0.0020903283
0.00098064977
-0.014626606
-0.00075469461
0.00067792972
0.015149184
-0.0014305203
0.00011817297
-0.01431632
0.014702012
-0.00065469646
-0.00054494878
0.00010191075
0.00010970375
9.4529871e-05
9.0317985e-05
8.6409138e-05
0.00011127894
9.7617679e-05
1.3696233e-05
-0.0040901751
-3.9896136e-05
1.3548786e-05
0.0041390399
-3.6980993e-05
2.7391466e-05
2.7968767e-05
-0.0038023803
-4.403245e-05
0.0038342095
-4.3646204e-05
0.00045007817
0.00036569964
-0.01523286
-0.0004598515
0.015499815
-0.00062644697
0.0007736858
-0.015393468
0.00047902252
-0.00041864476
0.015316494
-0.00076002149
0.00090011792
-0.014549232
0.00032019346
-0.00021357698
0.014236707
-0.0006965154
0.00093613197
-0.014261424
0.00010395448
1.8360493e-05
0.0139135
-0.00071284739
0.00089808578
-0.014980864
-0.00016261353
0.00031120283
0.014750746
-0.00081919189
0.00063986993
-0.015498739
-0.00042425843
0.00044221667
0.015629403
-0.00079183181
8.3612597e-05
-0.015039097
0.015297902
-0.00044007009
-0.00036647027
6.7829506e-05
7.3059903e-05
5.9956301e-05
5.9516994e-05
5.5350537e-05
7.8666043e-05
6.5978021e-05
9.6078373e-06
-0.004270243
-2.7687454e-05
9.6405015e-06
0.0043044729
-2.6344267e-05
1.1379131e-05
1.2116012e-05
-0.0039017658
-1.8873142e-05
0.0039150686
-1.8263037e-05
0.00016748511
0.00015285684
-0.015621534
-0.00016411053
0.015602133
-0.00013906899
0.00012660053
-0.015051539
0.00011786043
-6.5110221e-05
0.014674374
0.00019615105
-4.7577466e-05
-0.013791208
4.9114136e-05
-7.8535005e-05
0.013295147
0.00057182933
-7.3980336e-05
-0.013439983
0.00013077506
-0.00017044731
0.012928619
0.00062373669
7.9417582e-05
-0.014367555
0.00016281717
-9.3951159e-05