/*--------------------------------*- C++ -*----------------------------------*\
| =========                 |                                                 |
| \\      /  F ield         | OpenFOAM: The Open Source CFD Toolbox           |
|  \\    /   O peration     | Version:  2406                                  |
|   \\  /    A nd           | Website:  www.openfoam.com                      |
|    \\/     M anipulation  |                                                 |
\*---------------------------------------------------------------------------*/
FoamFile
{
    version     2.0;
    format      ascii;
    arch        "LSB;label=32;scalar=64";
    class       volVectorField;
    location    "100";
    object      U;
}
// * * * * * * * * * * * * * * * * * * * * * * * * * * * * * * * * * * * * * //

dimensions      [0 1 -1 0 0 0 0];

internalField   nonuniform List<vector> 
71615
(
(0.00081542953 1.0011354 0.002556277)
(-2.6076521e-05 0.9999892 -3.3014705e-05)
(1.2184548e-05 1.0027541 1.4399571e-05)
(-3.7708157e-05 1.0010337 -0.000241708)
(-5.6386516e-05 1.0052233 -0.00017201785)
(-2.8583547e-05 1.0040457 -0.00052658786)
(-0.00015010942 1.0107152 -0.00033316503)
(-2.9828399e-05 1.0097883 -0.00093546801)
(-0.00030091362 1.0205252 -0.00056084681)
(-3.1748088e-05 1.0196344 -0.0015655634)
(-0.00053676235 1.0367328 -0.00088974437)
(-3.8924307e-05 1.0357027 -0.0025383625)
(-0.00086971886 1.0622942 -0.0013511846)
(-5.0974182e-05 1.0609868 -0.0039121664)
(-0.0013010453 1.1003757 -0.0019306373)
(-5.8312314e-05 1.0986557 -0.0056320623)
(-0.001832176 1.1528875 -0.0024919955)
(-5.4866278e-05 1.1507486 -0.0074261506)
(-0.0023201404 1.2175587 -0.0027801183)
(-9.1352826e-05 1.21506 -0.0085348331)
(-0.0025890561 1.2847513 -0.0024878961)
(-0.00020164311 1.2821121 -0.0079615457)
(-0.0024698619 1.3393715 -0.0016315807)
(-0.00036262549 1.3366393 -0.0055160754)
(-0.0020760467 1.3707356 -0.00063125722)
(-0.00050061459 1.3676518 -0.0024421502)
(-0.0016154789 1.3793633 0.0001577082)
(-0.00055946719 1.375897 -4.5828272e-05)
(-0.0012550244 1.3727655 0.00059732769)
(-0.00056272763 1.3690533 0.0013092145)
(-0.00093317532 1.3589313 0.00076861908)
(-0.00056348956 1.3551879 0.0018780123)
(-0.00064697644 1.3433401 0.00075630176)
(-0.00056426768 1.3394781 0.0019557028)
(-0.00047147798 1.3286137 0.00067729657)
(-0.00057618337 1.3244742 0.0017531262)
(-0.00043714193 1.3153094 0.0006060628)
(-0.00062807162 1.3107123 0.0015565662)
(-0.00055036004 1.3026751 0.00062596586)
(-0.00076959017 1.2975503 0.001506934)
(-0.00083898811 1.2892866 0.00075428529)
(-0.0010370649 1.2839189 0.0016749351)
(-0.0013327948 1.2740048 0.00093790431)
(-0.0014251182 1.2688375 0.0019040825)
(-0.00015409708 1.0000971 0.00066890134)
(-5.9740158e-05 1.0000195 -0.00011784983)
(-4.4407299e-05 1.0000226 -0.00021513904)
(6.031672e-06 1.0000216 -0.00024389824)
(5.1272735e-05 1.0000192 -0.00020727956)
(4.1901369e-05 1.0000208 -0.00011918197)
(-0.00025514859 0.9998765 -0.00014388299)
(-0.00022995968 1.0014838 -0.00030895802)
(-0.0007755594 1.0012242 -0.0019591825)
(-0.0004663743 1.0010793 -0.0027703291)
(0.00015185948 1.0010264 -0.002894889)
(0.00065566353 1.0011223 -0.0024431232)
(0.00057749605 1.0010425 -0.0011511738)
(0.00014823335 1.0010176 -0.00030625864)
(-0.00055593252 1.0044758 -0.00079656486)
(-0.0016772767 1.0040813 -0.0042294165)
(-0.00098831942 1.003603 -0.0059416547)
(0.00032169875 1.0034622 -0.006179963)
(0.0013913096 1.0037961 -0.0052345786)
(0.00134187 1.0038851 -0.0024683889)
(0.00028960625 1.0043145 -0.00052460303)
(-0.001034549 1.0102243 -0.0014974227)
(-0.0030204322 1.0094925 -0.0075939102)
(-0.0017732863 1.0084101 -0.010680102)
(0.00057130319 1.0080988 -0.011114525)
(0.0025163385 1.0088806 -0.0093912775)
(0.0024169001 1.0093773 -0.0044222127)
(0.0005414187 1.0102678 -0.00085349171)
(-0.0017789176 1.020118 -0.0025397852)
(-0.0051072282 1.0188313 -0.012771414)
(-0.0029992266 1.0168108 -0.018033413)
(0.00096761019 1.0162289 -0.01879473)
(0.0042741857 1.0176941 -0.015816191)
(0.0040273401 1.0187936 -0.0074046486)
(0.00095734696 1.0203486 -0.0013802755)
(-0.0028910747 1.0362926 -0.0040973454)
(-0.0082938033 1.0342959 -0.020585526)
(-0.0048787463 1.0309873 -0.029263748)
(0.0015781273 1.0300367 -0.030569367)
(0.0069536664 1.0324464 -0.025559397)
(0.0064522665 1.034279 -0.011893064)
(0.0015784782 1.0367189 -0.0021690453)
(-0.0044873473 1.0616025 -0.0062647296)
(-0.012868042 1.0590531 -0.031688946)
(-0.0076063992 1.0542956 -0.045495719)
(0.0024698193 1.0529446 -0.047679475)
(0.010820959 1.0564225 -0.039541444)
(0.0098466478 1.0588413 -0.018260793)
(0.0024748009 1.0622819 -0.003252516)
(-0.0065264948 1.099161 -0.008996447)
(-0.018731254 1.0970237 -0.045761302)
(-0.011154937 1.0913649 -0.066530969)
(0.0036358469 1.0897912 -0.070075374)
(0.015789419 1.0939095 -0.057514574)
(0.013978645 1.0959175 -0.026336747)
(0.0036105134 1.100073 -0.0045876025)
(-0.0085826927 1.1507051 -0.011811142)
(-0.024759328 1.1512103 -0.060053347)
(-0.014889016 1.1466261 -0.088601568)
(0.0048031611 1.1453728 -0.093941562)
(0.020893725 1.1486726 -0.076176192)
(0.017853995 1.1479311 -0.034694685)
(0.0047558376 1.1517605 -0.0059288508)
(-0.009825021 1.2139738 -0.013598629)
(-0.028219572 1.2200208 -0.067910917)
(-0.017108813 1.2203739 -0.10050222)
(0.0054038825 1.2209951 -0.10706659)
(0.023721059 1.2198889 -0.086499331)
(0.019582128 1.2132412 -0.039937198)
(0.0054219424 1.2148436 -0.0067070999)
(-0.0092060247 1.2798858 -0.0128749)
(-0.025921029 1.2928724 -0.060689372)
(-0.016309144 1.3049157 -0.090944561)
(0.0049464606 1.3095342 -0.098895383)
(0.021842028 1.2984338 -0.077412706)
(0.016945189 1.2822659 -0.037587726)
(0.0049675499 1.2802074 -0.006281753)
(-0.0066228781 1.3340203 -0.0092206285)
(-0.01798111 1.3524716 -0.039628169)
(-0.012023762 1.3743172 -0.061266931)
(0.0028531897 1.3797163 -0.068263193)
(0.015036707 1.3640301 -0.051717148)
(0.0098506595 1.3385447 -0.026613609)
(0.0033133789 1.3338346 -0.0045570273)
(-0.0033374766 1.3656613 -0.0042825811)
(-0.0081926389 1.3843188 -0.015541644)
(-0.0070710246 1.4000675 -0.023614417)
(7.1740939e-05 1.4008536 -0.026913825)
(0.0063371928 1.3945425 -0.020961773)
(0.0016507219 1.3704137 -0.012456094)
(0.0012779658 1.3653635 -0.0023627345)
(-0.00071114008 1.3748309 -0.00015021745)
(-0.00091585633 1.3872744 0.0025742586)
(-0.0028157363 1.3860277 0.0072471549)
(-0.0026725458 1.3802111 0.0072428101)
(-0.0011322212 1.3896024 0.0037564193)
(-0.0037355263 1.3787186 -0.0011691905)
(-0.00025552135 1.3747289 -0.00057350946)
(0.00079882268 1.3686615 0.0024332057)
(0.0031977055 1.3700671 0.013679055)
(-0.00063663737 1.3483542 0.025236417)
(-0.0047015543 1.3370275 0.026398602)
(-0.0062831356 1.3613053 0.019049213)
(-0.005531351 1.3712822 0.0053561598)
(-0.0010453633 1.3688775 0.0006176326)
(0.0013831339 1.3550102 0.0035976744)
(0.0047775798 1.3411261 0.019438135)
(0.00019276573 1.3030879 0.032309982)
(-0.0063105523 1.2890487 0.035358835)
(-0.009034968 1.3223873 0.025410878)
(-0.005297351 1.354818 0.0080366892)
(-0.0012270355 1.3554864 0.0012967369)
(0.0014105814 1.33934 0.003881441)
(0.0047898437 1.307668 0.021045125)
(0.0001333914 1.2598565 0.034058259)
(-0.0072411103 1.2451803 0.037541617)
(-0.010439728 1.2823188 0.026401094)
(-0.0046352857 1.3332756 0.008789287)
(-0.001138587 1.3400636 0.0015476973)
(0.0011858355 1.3242671 0.0036887381)
(0.0040317321 1.2746306 0.020622238)
(-0.00032378042 1.222558 0.033343017)
(-0.007864381 1.2082025 0.035956717)
(-0.011148156 1.2458596 0.025544314)
(-0.0044900161 1.3091431 0.0089161658)
(-0.0010118501 1.3254578 0.0014966827)
(0.00088316654 1.3102944 0.0034662314)
(0.0031408378 1.2445492 0.019893182)
(-0.00097195716 1.191859 0.0311485)
(-0.0082605111 1.178202 0.032885448)
(-0.011448018 1.2147152 0.023977871)
(-0.0048966948 1.284525 0.00885637)
(-0.00093819233 1.3123787 0.0013316804)
(0.00058207542 1.2966985 0.0034366629)
(0.0023679638 1.2184138 0.019321432)
(-0.0016725462 1.1670959 0.028603485)
(-0.0084573431 1.1542906 0.029654365)
(-0.011487173 1.1889102 0.022062204)
(-0.0055867788 1.2610301 0.0087933818)
(-0.00098768016 1.3002364 0.0012668523)
(0.00038888421 1.2826852 0.0037116803)
(0.0016835767 1.1960896 0.018742922)
(-0.0023130884 1.1470635 0.026351175)
(-0.0085438383 1.1351762 0.026866656)
(-0.011445591 1.1675883 0.020362183)
(-0.006321438 1.2395873 0.0087734566)
(-0.0012237757 1.2877685 0.0013396019)
(0.00034917379 1.2677584 0.0043550583)
(0.0011749135 1.1763472 0.018634245)
(-0.0028534773 1.130257 0.024965757)
(-0.008593201 1.1197354 0.024972718)
(-0.011536907 1.1490002 0.01942897)
(-0.0070542058 1.2201607 0.0089538031)
(-0.0016791781 1.2737415 0.0015181723)
(-8.7965212e-05 1.0000055 -8.7943411e-05)
(-0.0001575626 1.0000279 -0.00020741479)
(-0.00016534338 1.0000312 -0.00033433623)
(-9.6639386e-05 1.0000301 -0.00042110847)
(1.4705105e-05 1.0000246 -0.00044642147)
(0.00011869311 1.0000183 -0.00040372758)
(0.00016839865 1.0000138 -0.00030331527)
(0.00013769629 1.000011 -0.00017122562)
(0.00013022305 0.99997285 -8.1345066e-05)
(-0.00064357063 1.0009453 -0.00064345569)
(-0.0018952381 1.0010256 -0.0025448652)
(-0.0018655689 1.0006591 -0.0039118059)
(-0.00099588248 1.0003549 -0.0048184328)
(0.00032552971 1.0002738 -0.0050118806)
(0.0014879335 1.0004767 -0.0044439798)
(0.0019734332 1.0008471 -0.003269144)
(0.0015610169 1.001186 -0.0018260987)
(0.00032491301 1.000921 -0.00032594351)
(-0.001442044 1.0038974 -0.001443923)
(-0.0039959642 1.003448 -0.0053774061)
(-0.0039778836 1.0021289 -0.0083072946)
(-0.0021411647 1.0010529 -0.01030499)
(0.00070074192 1.0007827 -0.010728255)
(0.0031858169 1.0015022 -0.0094748008)
(0.0041878212 1.0027967 -0.0069245505)
(0.0033548839 1.0039748 -0.0039182966)
(0.00074071228 1.0039541 -0.00070461975)
(-0.0026002013 1.0095936 -0.0026017681)
(-0.007145913 1.0080705 -0.0096326603)
(-0.0071993555 1.0050019 -0.015000793)
(-0.0038984168 1.0024799 -0.018732387)
(0.0012835007 1.0018552 -0.019525706)
(0.0057974714 1.0035488 -0.01717704)
(0.0075603121 1.0065456 -0.012455351)
(0.0060299094 1.0092944 -0.0070120916)
(0.0013259503 1.0097865 -0.0012518825)
(-0.0043626019 1.019381 -0.0043623692)
(-0.012058485 1.0162048 -0.0162428)
(-0.012317765 1.0103469 -0.025610819)
(-0.0067318328 1.0054362 -0.032307784)
(0.0022348986 1.0042161 -0.033753325)
(0.0099982114 1.007532 -0.029497109)
(0.01287849 1.0132889 -0.021128979)
(0.01016737 1.018498 -0.011759704)
(0.0022267451 1.0197722 -0.0020719179)
(-0.0070046391 1.0354047 -0.0070180688)
(-0.019577987 1.0300638 -0.026324895)
(-0.020387902 1.0202157 -0.042298067)
(-0.011303094 1.0116969 -0.054166925)
(0.0037891121 1.0095526 -0.056794104)
(0.016718653 1.0153628 -0.049128147)
(0.021143586 1.0251827 -0.034551649)
(0.016413215 1.0338049 -0.018886717)
(0.0035807574 1.0360242 -0.0032816029)
(-0.010719622 1.0605868 -0.010740704)
(-0.030458728 1.0530852 -0.0408819)
(-0.032539078 1.0384635 -0.067413121)
(-0.018423733 1.025189 -0.088210796)
(0.0062371267 1.0217624 -0.092992969)
(0.027050863 1.0309616 -0.079260524)
(0.033352799 1.0459224 -0.054327844)
(0.0252805 1.0584254 -0.028988598)
(0.0054596708 1.061406 -0.0049792468)
(-0.015406667 1.098023 -0.015407597)
(-0.044554785 1.0900679 -0.059762133)
(-0.049259206 1.0717634 -0.102073)
(-0.028677949 1.0538263 -0.13758353)
(0.0097789918 1.0489689 -0.14614199)
(0.041669905 1.0617416 -0.12208904)
(0.049683397 1.0811902 -0.08080131)
(0.036505951 1.096293 -0.041741004)
(0.007830444 1.0990055 -0.0070942679)
(-0.020152004 1.1497041 -0.020122704)
(-0.059401897 1.1457646 -0.079742906)
(-0.068050964 1.1295825 -0.14170302)
(-0.041800592 1.115676 -0.19880477)
(0.014626637 1.1123001 -0.21423568)
(0.059018479 1.1210866 -0.17295241)
(0.067596929 1.1378717 -0.11010901)
(0.047948367 1.1505601 -0.054671422)
(0.010203863 1.1505014 -0.0092037817)
(-0.023077789 1.2134495 -0.022997361)
(-0.068067258 1.2205458 -0.091654072)
(-0.08402335 1.228414 -0.17285984)
(-0.055986918 1.23073 -0.25775218)
(0.017907556 1.225741 -0.27855901)
(0.076384357 1.232406 -0.22039285)
(0.079507171 1.2219313 -0.12904545)
(0.054463739 1.2197941 -0.061965828)
(0.011542244 1.2134615 -0.010428829)
(-0.021745747 1.280153 -0.02160406)
(-0.062729751 1.3063228 -0.084192214)
(-0.081510635 1.338103 -0.16289138)
(-0.050892802 1.307247 -0.22042786)
(0.0098166948 1.2918895 -0.23513909)
(0.0652458 1.327003 -0.19880344)
(0.076925775 1.3269115 -0.12334853)
(0.049414578 1.2930445 -0.055999009)
(0.010694732 1.2788525 -0.0096816209)
(-0.015640422 1.3349302 -0.01544698)
(-0.043681474 1.37695 -0.057397772)
(-0.048431598 1.3701307 -0.08959977)
(-0.028058086 1.2905345 -0.093574315)
(-0.0047962185 1.2666308 -0.095284095)
(0.025360708 1.328788 -0.099554974)
(0.048285444 1.3896788 -0.079324279)
(0.032912821 1.3528939 -0.03689971)
(0.0073342798 1.3327113 -0.0068442485)
(-0.0075389956 1.366507 -0.0072667347)
(-0.01843856 1.39951 -0.020689161)
(-0.0095325708 1.3238814 -0.0047817796)
(-0.0060018521 1.2117765 0.025659419)
(-0.016416097 1.1825838 0.030267874)
(-0.01425935 1.2614656 0.0051558485)
(0.0092583986 1.3771258 -0.021828174)
(0.013649553 1.3852882 -0.015009428)
(0.0029477719 1.3644906 -0.0032189418)
(-0.00086182721 1.3751491 -0.00046495705)
(0.0029499646 1.3756252 0.010227439)
(0.014925034 1.2501157 0.050988739)
(0.004961117 1.1269002 0.087714512)
(-0.021593988 1.096992 0.09318981)
(-0.035624698 1.1796559 0.064264778)
(-0.020169001 1.3207586 0.021517535)
(-0.0015980935 1.387863 0.0019422531)
(-0.000551143 1.3740142 -0.00027344789)
(0.003157854 1.3683612 0.0037249436)
(0.015213334 1.3275374 0.028650522)
(0.024018402 1.1821298 0.073566298)
(0.0079474702 1.0634928 0.10605201)
(-0.022677955 1.0358826 0.11001034)
(-0.042473029 1.1131598 0.084533111)
(-0.035062628 1.257076 0.04377247)
(-0.011598132 1.3675201 0.012371651)
(-0.0024005905 1.3681979 0.0014855312)
(0.0048419191 1.3541278 0.0056144624)
(0.020480386 1.2761801 0.037259263)
(0.024558439 1.1298816 0.076748415)
(0.0070543175 1.022152 0.1021627)
(-0.021828832 0.99771054 0.10441428)
(-0.041974 1.0666547 0.083879597)
(-0.039291273 1.2017864 0.049661687)
(-0.017057956 1.333852 0.017201106)
(-0.0029139592 1.3547563 0.0022529992)
(0.0049739741 1.3374851 0.0059858181)
(0.020908969 1.2307994 0.039029999)
(0.021493521 1.0922922 0.071091226)
(0.0047692461 0.99660591 0.090105377)
(-0.020299445 0.97534721 0.091044775)
(-0.038509749 1.0357869 0.07470455)
(-0.038273222 1.1582962 0.047206405)
(-0.019108551 1.2960259 0.018071524)
(-0.0027735399 1.3391844 0.0023470984)
(0.0044297102 1.3200872 0.0058009927)
(0.018920661 1.193529 0.037261808)
(0.01748773 1.065742 0.062656591)
(0.002375495 0.98119555 0.07673477)
(-0.018707396 0.96270966 0.076691041)
(-0.034329258 1.0155655 0.063567205)
(-0.035288035 1.1254251 0.041763629)
(-0.019467008 1.2600346 0.017148925)
(-0.0024343011 1.3242989 0.0020751876)
(0.003884353 1.3019515 0.005748615)
(0.01621481 1.163855 0.03421731)
(0.013683324 1.0469929 0.054303909)
(0.00035763727 0.97201109 0.064704221)
(-0.017261173 0.9557944 0.06396645)
(-0.030426833 1.0023132 0.05327072)
(-0.031937201 1.1008819 0.035901492)
(-0.019294353 1.2284896 0.015875841)
(-0.0022162018 1.3106773 0.0017370861)
(0.0035960731 1.283036 0.0060768466)
(0.013674913 1.1404585 0.031167299)
(0.010496211 1.033482 0.047128685)
(-0.0012043189 0.96647839 0.054793342)
(-0.016008126 0.95212297 0.053582695)
(-0.027131832 0.99341194 0.044704869)
(-0.028884661 1.0823403 0.030662968)
(-0.018723037 1.201893 0.014376145)
(-0.0022939163 1.2974535 0.0015430836)
(0.0035367653 1.2641286 0.0066882763)
(0.011611561 1.1214615 0.028662993)
(0.0080080389 1.0230546 0.041427766)
(-0.0023618098 0.96298493 0.047003961)
(-0.014945797 0.95027477 0.045458523)
(-0.024477193 0.98696707 0.03798723)
(-0.026400135 1.0675738 0.02648224)
(-0.018124312 1.1796005 0.01301866)
(-0.0026765843 1.2836491 0.0014938788)
(0.0037519675 1.2459735 0.0075748494)
(0.010276034 1.1046232 0.027136048)
(0.0062031081 1.0144217 0.037228963)
(-0.0031925101 0.96088142 0.041102888)
(-0.014089675 0.94969525 0.039293947)
(-0.022455855 0.98209874 0.032968902)
(-0.024674461 1.0547353 0.023553015)
(-0.018039313 1.1598856 0.012312231)
(-0.0034397343 1.2686574 0.0016837316)
(0.0006475809 1.0000903 -0.00015195525)
(-0.00020745759 1.0000282 -0.00015867048)
(-0.00029663541 1.0000347 -0.00029815468)
(-0.00027745776 1.0000352 -0.00042584719)
(-0.00015624837 1.0000291 -0.00051423662)
(2.449835e-05 1.0000191 -0.0005403801)
(0.00019518191 1.0000103 -0.00049636014)
(0.00029082745 1.0000055 -0.00039429991)
(0.00027970182 1.0000055 -0.00025998135)
(0.00016099886 1.0000074 -0.0001227544)
(-0.0012176964 1.0006732 0.0011391788)
(-0.00030422161 1.0014684 -0.00023991243)
(-0.0025407859 1.0010265 -0.0019143028)
(-0.0034129242 1.0004537 -0.0034336235)
(-0.0030641254 0.99978467 -0.0048060598)
(-0.0015751557 0.99926914 -0.005714073)
(0.00052218864 0.99914539 -0.0059096828)
(0.0024084329 0.99947847 -0.005336431)
(0.0033681799 1.0001072 -0.0041571702)
(0.0030938309 1.0007651 -0.0026667573)
(0.0017552967 1.001228 -0.0012087831)
(5.5215087e-05 1.0022507 6.0601537e-05)
(-0.00079300311 1.004456 -0.00057217668)
(-0.0053717443 1.0034453 -0.004027793)
(-0.0072696409 1.0013881 -0.0073026425)
(-0.006611516 0.99896896 -0.010341585)
(-0.0034314226 0.99710367 -0.012393911)
(0.0011367949 0.99666466 -0.012838958)
(0.0052248769 0.9978825 -0.011538623)
(0.0072291679 1.0001522 -0.0089018469)
(0.0065617648 1.0024968 -0.0056543775)
(0.0037748443 1.0041028 -0.0026011301)
(0.00021436741 1.0049431 -8.1944842e-05)
(-0.001492465 1.010206 -0.001058192)
(-0.0096236899 1.008065 -0.0071945037)
(-0.013168607 1.0032899 -0.01321802)
(-0.012165671 0.99754326 -0.01899603)
(-0.0063869414 0.99301282 -0.02302386)
(0.002130093 0.99194168 -0.023909484)
(0.0096931147 0.99493008 -0.021334914)
(0.013214096 1.0003805 -0.016234872)
(0.011839365 1.0058638 -0.010193764)
(0.0067699805 1.0095797 -0.0046695854)
(0.00037506006 1.0106526 -0.00023644763)
(-0.0025323242 1.0200889 -0.0018094304)
(-0.016225928 1.0162007 -0.012117268)
(-0.022620851 1.0070733 -0.022683036)
(-0.02137503 0.99568199 -0.033316376)
(-0.01140356 0.98641465 -0.0410369)
(0.0038389767 0.98419359 -0.04276666)
(0.0172239 0.99038182 -0.037767618)
(0.022989488 1.0013591 -0.028170704)
(0.020170754 1.0120174 -0.017341398)
(0.011384539 1.0190293 -0.0078548976)
(0.00061633591 1.0206839 -0.00043736931)
(-0.0040898774 1.0362668 -0.0029248929)
(-0.026298921 1.0300667 -0.019634135)
(-0.037712338 1.0146407 -0.037782709)
(-0.036805411 0.99432553 -0.057275382)
(-0.020121262 0.97689685 -0.072336121)
(0.0068531082 0.97259997 -0.07582305)
(0.030129566 0.98447162 -0.065846875)
(0.038994786 1.004593 -0.047665902)
(0.033161407 1.0230759 -0.028463931)
(0.01832954 1.0346497 -0.012641342)
(0.0009503074 1.0370987 -0.00073922465)
(-0.0062707733 1.0616073 -0.004502457)
(-0.040860078 1.0530959 -0.030512036)
(-0.060886277 1.0299404 -0.060968115)
(-0.062257336 0.99687291 -0.096856547)
(-0.035334644 0.9663278 -0.12694607)
(0.012182667 0.95835303 -0.13423419)
(0.052152179 0.97986024 -0.1137482)
(0.064506357 1.013909 -0.078727571)
(0.052462705 1.0428201 -0.0449782)
(0.028170584 1.0595973 -0.019415836)
(0.0014081699 1.0628413 -0.0011842377)
(-0.0090258486 1.0992215 -0.006508603)
(-0.059770166 1.0900891 -0.044613331)
(-0.093808521 1.0604932 -0.093930255)
(-0.1018613 1.0122162 -0.15894389)
(-0.062206017 0.96671726 -0.22196361)
(0.022131371 0.95454013 -0.23952034)
(0.088422 0.98653173 -0.19269887)
(0.10264992 1.037823 -0.1252828)
(0.078604634 1.0773286 -0.067314511)
(0.040575259 1.0976843 -0.027955881)
(0.0019817959 1.1009341 -0.0017411763)
(-0.011885085 1.1508103 -0.0085022344)
(-0.079819376 1.1457951 -0.059479009)
(-0.1332109 1.1188279 -0.13345243)
(-0.16777396 1.0784988 -0.25857573)
(-0.10668381 0.99634599 -0.37478557)
(0.034185395 0.96634612 -0.40206258)
(0.14986636 1.0391345 -0.32625141)
(0.15560814 1.100686 -0.18924993)
(0.1080488 1.1344015 -0.092306567)
(0.053151659 1.1517226 -0.036597988)
(0.0024802578 1.1530444 -0.0023556574)
(-0.013730397 1.2141206 -0.0096598608)
(-0.091816086 1.2205914 -0.068176071)
(-0.17065176 1.2311377 -0.1704747)
(-0.20031493 1.1442494 -0.30321291)
(-0.11981456 0.97281226 -0.39652155)
(0.026078131 0.92302806 -0.42414722)
(0.15680772 1.0527324 -0.36247812)
(0.19853795 1.210617 -0.24402996)
(0.12859655 1.2228678 -0.10972693)
(0.060243926 1.2199312 -0.041460782)
(0.0026934199 1.2165954 -0.0027997512)
(-0.01306759 1.2800301 -0.0089461561)
(-0.084400636 1.3064554 -0.06280982)
(-0.15313959 1.3244195 -0.14828809)
(-0.14422528 1.1373928 -0.20343034)
(-0.089728004 0.92646795 -0.24957419)
(-0.00036808189 0.87117182 -0.27184204)
(0.089823619 1.019896 -0.24270824)
(0.14539455 1.2474985 -0.18954134)
(0.12328207 1.3330348 -0.10637914)
(0.054501688 1.2914837 -0.037637526)
(0.0023010369 1.2823315 -0.0028504236)
(-0.0094779222 1.3341625 -0.0062691284)
(-0.0580255 1.3771754 -0.042990293)
(-0.073383933 1.318037 -0.062118937)
(-0.040977013 1.0671271 -0.031788866)
(-0.026578311 0.84381447 0.0035817071)
(-0.032052067 0.79011693 0.002298203)
(-0.014592583 0.94044202 -0.033848971)
(0.037016799 1.1988709 -0.066917853)
(0.072473038 1.3852397 -0.065559009)
(0.035879579 1.349362 -0.025159824)
(0.001326591 1.3360822 -0.0024460613)
(-0.0046040288 1.3658084 -0.0028872156)
(-0.022471608 1.3996243 -0.015841194)
(0.0047223747 1.2450807 0.020550297)
(0.036640211 0.96084727 0.094050277)
(0.017220971 0.73121893 0.16308784)
(-0.047578829 0.67604201 0.17223605)
(-0.081553981 0.82947379 0.11054226)
(-0.049493127 1.103706 0.033941193)
(0.010017019 1.3557576 -0.014924715)
(0.014428307 1.3810037 -0.010468869)
(0.00014435174 1.3675684 -0.0018635954)
(-0.00052890543 1.3749418 -0.00018842222)
(0.0068494258 1.3755048 0.0079155187)
(0.047532516 1.1613472 0.065654101)
(0.065591819 0.88193044 0.13960932)
(0.028728624 0.67537004 0.19719801)
(-0.046358725 0.6280553 0.20289112)
(-0.098007821 0.76212613 0.15234151)
(-0.088441558 1.018162 0.080396537)
(-0.03535794 1.2895385 0.021309391)
(-0.0018897077 1.3857121 0.0006003955)
(-0.00078794554 1.3768393 -0.0013452814)
(0.0019998016 1.3687615 0.0013826393)
(0.023721806 1.3272645 0.022330552)
(0.061364948 1.0951513 0.080287743)
(0.066484558 0.84348042 0.1394821)
(0.026087786 0.67031688 0.17862963)
(-0.040583657 0.63201603 0.18023721)
(-0.091135615 0.74185992 0.14433759)
(-0.095257873 0.96319232 0.089482659)
(-0.055745058 1.2224907 0.036818975)
(-0.012034121 1.3702958 0.0068952813)
(-0.0012241516 1.3708149 -0.00094583406)
(0.003131846 1.3550783 0.0020114279)
(0.03105344 1.2758703 0.029256225)
(0.059822824 1.0497377 0.078758949)
(0.057120431 0.83130342 0.12274952)
(0.019942475 0.68846311 0.14811951)
(-0.034646567 0.65757711 0.1471794)
(-0.078037999 0.74678561 0.12166978)
(-0.087832839 0.93335081 0.081725128)
(-0.060257492 1.1678179 0.03957136)
(-0.017459638 1.342533 0.0096273765)
(-0.0012873977 1.3572616 -0.00060584245)
(0.0033686788 1.3393864 0.0021056336)
(0.031844042 1.2305079 0.030912698)
(0.052275432 1.0204645 0.070849973)
(0.045848161 0.83246601 0.10295721)
(0.013957257 0.71373703 0.11935941)
(-0.029604897 0.68843775 0.11704786)
(-0.06510447 0.76182495 0.098207751)
(-0.076199093 0.91914524 0.068898132)
(-0.057182938 1.1267489 0.036383116)
(-0.019280358 1.3094488 0.01011555)
(-0.0011170296 1.3417485 -0.00037641593)
(0.0031113731 1.3242858 0.0020014328)
(0.029365887 1.1932699 0.029824978)
(0.043500999 1.0019159 0.061546305)
(0.035722677 0.83933001 0.085069974)
(0.0090916702 0.73910214 0.095750279)
(-0.025549388 0.71795206 0.092742199)
(-0.05416077 0.7794644 0.078207307)
(-0.064683175 0.91356845 0.05617194)
(-0.051385882 1.0966622 0.031196897)
(-0.019284119 1.276263 0.0094726588)
(-0.00089927892 1.3271264 -0.00020902525)
(0.002773341 1.3102781 0.0019352867)
(0.02582417 1.1636355 0.027764839)
(0.035514422 0.99009216 0.052967962)
(0.027530297 0.84801763 0.070395944)
(0.0054099169 0.76196336 0.077354712)
(-0.022333552 0.74393235 0.074014216)
(-0.045422379 0.79646053 0.062370838)
(-0.05478745 0.91242154 0.045330117)
(-0.045295255 1.074676 0.025978975)
(-0.018754547 1.2458188 0.0084312429)
(-0.00072757144 1.3141648 -9.9072584e-05)
(0.0025500506 1.2966371 0.002029502)
(0.02242952 1.1402802 0.025674224)
(0.028965287 0.9822887 0.04582442)
(0.021206273 0.85664857 0.058854725)
(0.0027169743 0.78172692 0.063298788)
(-0.019779393 0.76612785 0.059822255)
(-0.038595482 0.81163103 0.050214522)
(-0.046806826 0.9132363 0.036705249)
(-0.039942916 1.0583899 0.021490427)
(-0.018363058 1.2193447 0.0075078393)
(-0.00067188689 1.3023392 -6.0818832e-05)
(0.0025372154 1.282579 0.0024062333)
(0.019676613 1.1213193 0.023939974)
(0.023872011 0.97663248 0.040170535)
(0.016414181 0.86473223 0.04990015)
(0.0007685343 0.79882601 0.052560793)
(-0.017733616 0.78515927 0.049046528)
(-0.033277297 0.82503752 0.040951603)
(-0.040533271 0.91483319 0.030048792)
(-0.035662433 1.0455543 0.017952706)
(-0.017928222 1.1967007 0.0066415044)
(-0.00081230514 1.2903128 -0.00014203412)
(0.0027915442 1.2676124 0.0030929261)
(0.017910257 1.1045348 0.022925719)
(0.020081084 0.97236946 0.035898238)
(0.012779088 0.8722853 0.042988398)
(-0.00069447635 0.81365674 0.044261207)
(-0.016123264 0.8015136 0.04072903)
(-0.029143152 0.83691473 0.033830207)
(-0.035705504 0.91693513 0.025005457)
(-0.032578166 1.0345921 0.015427373)
(-0.017959562 1.1766289 0.0061477881)
(-0.0011679193 1.2764399 -0.00036503079)
(-0.00011985648 1.0000195 -6.0953234e-05)
(-0.00033493584 1.0000312 -0.00016696058)
(-0.00042449327 1.0000352 -0.00027991235)
(-0.00038272491 1.0000301 -0.0003851297)
(-0.00021263832 1.0000188 -0.00045914039)
(3.3661116e-05 1.0000046 -0.00048120901)
(0.00026717464 0.99999357 -0.00044450153)
(0.00040536749 0.99998997 -0.0003598773)
(0.00040898273 0.99999334 -0.00024973745)
(0.00028929717 1.0000001 -0.00013688996)
(-6.4689061e-05 1.0000022 -6.20276e-05)
(-0.0019655768 1.0012164 -0.00079700611)
(-0.0039110663 1.0006612 -0.0018911333)
(-0.0047867697 0.99979145 -0.0030951812)
(-0.0041615397 0.99881575 -0.0041940295)
(-0.0021116442 0.99808008 -0.004928428)
(0.00070559678 0.99790825 -0.0050875321)
(0.0032562888 0.99838483 -0.0046219126)
(0.0046404422 0.99928566 -0.003672091)
(0.0044957182 1.0002517 -0.0024880039)
(0.0030056229 1.0009805 -0.0013137043)
(0.00086683779 1.0012057 -0.00043177405)
(-0.0042380495 1.0040648 -0.0017147693)
(-0.0083045999 1.0021226 -0.0040169755)
(-0.010309989 0.99897122 -0.006658606)
(-0.0090963174 0.99538718 -0.0091467334)
(-0.0046599646 0.99266009 -0.010841897)
(0.0015579742 0.9920276 -0.011211448)
(0.0071573938 0.99380713 -0.010131405)
(0.010080615 0.9971366 -0.0079587354)
(0.0096235837 1.000645 -0.0053169849)
(0.006362174 1.0032643 -0.0027708334)
(0.0021170659 1.004072 -0.0009165874)
(-0.007607585 1.0094758 -0.0030743791)
(-0.014995298 1.0049959 -0.0072543404)
(-0.018948961 0.9975446 -0.012233357)
(-0.017080196 0.98877347 -0.017153959)
(-0.008881325 0.98191117 -0.020634413)
(0.0029893499 0.98030867 -0.02140427)
(0.013574536 0.98482972 -0.019165355)
(0.018751891 0.99310622 -0.014779976)
(0.01752672 1.0015336 -0.00967491)
(0.0114387 1.0076404 -0.0049576867)
(0.0038959858 1.0096449 -0.0016274454)
(-0.01278619 1.0188267 -0.0051642514)
(-0.025603091 1.0103569 -0.012380595)
(-0.03326066 0.9956885 -0.02146186)
(-0.03089778 0.97760214 -0.030996438)
(-0.016414857 0.96277606 -0.038094468)
(0.0055835895 0.95923428 -0.039707674)
(0.024901371 0.96918686 -0.035053222)
(0.033460364 0.98666234 -0.026326631)
(0.030331783 1.0036255 -0.01672568)
(0.01936187 1.0153774 -0.0083721018)
(0.0065677953 1.0191907 -0.0027246686)
(-0.020600364 1.034332 -0.008319551)
(-0.042298656 1.0202434 -0.020447686)
(-0.057222479 0.99432482 -0.036915175)
(-0.055736033 0.95967579 -0.055871606)
(-0.03071078 0.92926353 -0.071248073)
(0.01059511 0.9217641 -0.074867281)
(0.04595671 0.9425961 -0.064530937)
(0.058973701 0.9774506 -0.046328142)
(0.051090082 1.0085814 -0.028149716)
(0.031521056 1.0286582 -0.013619827)
(0.010563876 1.0348174 -0.004416601)
(-0.031731472 1.0591295 -0.01284278)
(-0.067455788 1.0384901 -0.032592678)
(-0.096819653 0.99681946 -0.062429882)
(-0.10081077 0.93440143 -0.10104833)
(-0.058283374 0.87439495 -0.13509288)
(0.02049659 0.85943008 -0.14383679)
(0.085375096 0.90089306 -0.11982401)
(0.10340562 0.96741309 -0.081154382)
(0.083752182 1.0203035 -0.046108781)
(0.049228347 1.0510098 -0.021256556)
(0.016223326 1.0595697 -0.006816532)
(-0.04585052 1.0971521 -0.018658041)
(-0.10222659 1.0717616 -0.0493397)
(-0.15895456 1.0120179 -0.10221812)
(-0.19241464 0.9146859 -0.19302907)
(-0.12378841 0.78639477 -0.28540497)
(0.042745385 0.74724357 -0.3070101)
(0.1754346 0.84920806 -0.24541058)
(0.18032308 0.96716525 -0.14151482)
(0.13182873 1.0470541 -0.0723992)
(0.07249611 1.0874855 -0.031263938)
(0.023337298 1.0967696 -0.0098782127)
(-0.060254824 1.1514082 -0.024630208)
(-0.14208156 1.1295511 -0.068217868)
(-0.25909312 1.0781731 -0.16823224)
(-0.30674109 0.87253294 -0.30208393)
(-0.1808688 0.593363 -0.40277685)
(0.052782305 0.51802411 -0.43123078)
(0.25280781 0.72212214 -0.36504562)
(0.30421834 1.0012512 -0.24100788)
(0.19420739 1.1087633 -0.10692132)
(0.097522799 1.1435283 -0.041930722)
(0.030530937 1.1487221 -0.013049683)
(-0.068263552 1.2202888 -0.028004044)
(-0.17357795 1.2286779 -0.084305363)
(-0.30889867 1.1433737 -0.19284308)
(-0.31957228 0.77247965 -0.2989094)
(-0.20547976 0.3656472 -0.42119491)
(0.039457038 0.25210923 -0.47095095)
(0.24907225 0.55256984 -0.38483431)
(0.3157904 0.97973687 -0.25872119)
(0.2503026 1.2242005 -0.1401194)
(0.11211906 1.2212028 -0.048139813)
(0.034706047 1.2134935 -0.014938135)
(-0.061083986 1.2932142 -0.025587666)
(-0.16461225 1.3384241 -0.078764849)
(-0.21758396 1.136213 -0.12219651)
(-0.21116742 0.69797101 -0.16713253)
(-0.17173128 0.2310332 -0.26883143)
(-0.010781855 0.087327113 -0.34108534)
(0.13499436 0.45172806 -0.25815603)
(0.19072775 0.9312163 -0.17346588)
(0.20261053 1.2838981 -0.11667415)
(0.10458785 1.3139633 -0.045369739)
(0.031908284 1.28155 -0.013807743)
(-0.039968706 1.3528906 -0.017499847)
(-0.093579063 1.3697054 -0.039673486)
(-0.05259023 1.0659263 -0.0080137115)
(0.010494801 0.61495749 0.065871757)
(-0.015269009 0.33023861 0.087837218)
(-0.071751292 0.17692358 0.098073472)