/*--------------------------------*- C++ -*----------------------------------*\
| =========                 |                                                 |
| \\      /  F ield         | OpenFOAM: The Open Source CFD Toolbox           |
|  \\    /   O peration     | Version:  2406                                  |
|   \\  /    A nd           | Website:  www.openfoam.com                      |
|    \\/     M anipulation  |                                                 |
\*---------------------------------------------------------------------------*/
FoamFile
{
    version     2.0;
    format      ascii;
    arch        "LSB;label=32;scalar=64";
    class       volScalarField;
    location    "50";
    object      p;
}
// * * * * * * * * * * * * * * * * * * * * * * * * * * * * * * * * * * * * * //

dimensions      [0 2 -2 0 0 0 0];

internalField   nonuniform List<scalar> 
12225
(
-1.22167
-3.37632
-4.46013
-4.75937
-4.9297
-5.09419
-5.20778
-5.28379
-5.35312
-5.41646
-5.45814
-5.47401
-5.47305
-5.4673
-5.46157
-5.44608
-5.43293
-5.33865
-4.35231
-5.13332
-5.33692
-5.23289
-5.1988
-5.24835
-5.29853
-5.33898
-5.38638
-5.43506
-5.46749
-5.4779
-5.47428
-5.46785
-5.46192
-5.45031
-5.4269
-5.41166
-4.73272
-4.66528
-4.77938
-4.84829
-4.94712
-5.07469
-5.17929
-5.25915
-5.33144
-5.39443
-5.43654
-5.4551
-5.45937
-5.46047
-5.46086
-5.45602
-5.44398
-5.42946
-4.60588
-4.51722
-4.76467
-4.94375
-5.05916
-5.16444
-5.24936
-5.31572
-5.37475
-5.42452
-5.45681
-5.47051
-5.47403
-5.4763
-5.47772
-5.47428
-5.46088
-5.43024
-4.59823
-4.60902
-4.84743
-5.00313
-5.08747
-5.16706
-5.24144
-5.30599
-5.36373
-5.41164
-5.44402
-5.46111
-5.47016
-5.4777
-5.48282
-5.48149
-5.46797
-5.44223
-4.66047
-4.70191
-4.8833
-5.01096
-5.09047
-5.1679
-5.24264
-5.30911
-5.3673
-5.41444
-5.44712
-5.46669
-5.47935
-5.48984
-5.49678
-5.49655
-5.48629
-5.469
-4.72475
-4.76399
-4.90311
-5.01825
-5.10304
-5.18066
-5.25211
-5.3163
-5.37293
-5.41884
-5.45157
-5.47282
-5.48806
-5.50086
-5.50979
-5.51211
-5.5066
-5.49445
-4.78244
-4.8168
-4.92892
-5.03462
-5.12086
-5.19557
-5.26151
-5.32234
-5.37791
-5.42383
-5.45732
-5.48035
-5.49805
-5.51336
-5.52499
-5.53084
-5.53025
-5.52378
-4.83694
-4.86789
-4.9603
-5.05524
-5.13844
-5.20932
-5.27082
-5.32916
-5.38431
-5.43079
-5.46528
-5.49007
-5.51011
-5.52796
-5.54275
-5.55276
-5.55767
-5.55779
-4.88943
-4.91736
-4.99398
-5.07814
-5.15628
-5.22338
-5.28184
-5.33851
-5.39321
-5.44001
-5.47554
-5.50217
-5.52442
-5.54483
-5.56304
-5.5777
-5.58857
-5.59586
-4.93979
-4.96452
-5.02781
-5.10284
-5.17578
-5.2389
-5.29481
-5.35009
-5.40409
-5.45111
-5.48809
-5.51686
-5.54143
-5.56442
-5.58607
-5.60551
-5.62248
-5.63656
-4.98389
-5.00575
-5.05918
-5.12679
-5.19531
-5.25506
-5.30869
-5.36222
-5.4151
-5.4625
-5.50151
-5.53292
-5.55988
-5.58502
-5.60944
-5.63285
-5.65513
-5.67567
-5.02547
-5.04504
-5.091
-5.15093
-5.21498
-5.27266
-5.32473
-5.37597
-5.42683
-5.47439
-5.51607
-5.55123
-5.58118
-5.60854
-5.63522
-5.66185
-5.68904
-5.71504
-5.07021
-5.08727
-5.12731
-5.179
-5.23739
-5.29398
-5.34589
-5.39475
-5.44231
-5.48907
-5.53391
-5.57407
-5.60882
-5.63962
-5.66891
-5.69827
-5.72947
-5.76053
-5.11716
-5.13166
-5.16724
-5.21176
-5.26335
-5.31838
-5.37172
-5.41975
-5.4638
-5.50847
-5.55521
-5.60102
-5.64228
-5.67843
-5.71136
-5.7437
-5.77845
-5.81386
-5.16472
-5.17743
-5.20871
-5.24829
-5.29342
-5.34517
-5.40018
-5.45027
-5.49317
-5.53523
-5.58213
-5.63255
-5.68111
-5.72437
-5.76265
-5.79852
-5.83639
-5.87509
-5.21018
-5.22146
-5.24914
-5.28657
-5.32763
-5.37498
-5.43028
-5.48421
-5.52942
-5.5706
-5.61656
-5.66952
-5.72469
-5.77594
-5.82087
-5.86153
-5.90306
-5.94522
-5.24913
-5.25965
-5.28497
-5.32201
-5.36234
-5.40696
-5.46154
-5.51893
-5.56865
-5.61209
-5.65871
-5.71348
-5.77334
-5.83176
-5.88409
-5.93061
-5.97608
-6.02075
-5.27395
-5.28481
-5.30987
-5.34749
-5.39012
-5.43627
-5.4917
-5.55189
-5.60658
-5.655
-5.70533
-5.7634
-5.82719
-5.89057
-5.94842
-6.0004
-6.05035
-6.09858
-5.27106
-5.28292
-5.31042
-5.35119
-5.39845
-5.44999
-5.50912
-5.57198
-5.62997
-5.68377
-5.74001
-5.80336
-5.87031
-5.93574
-5.99539
-6.05044
-6.10389
-6.15665
-5.25179
-5.26486
-5.29618
-5.34136
-5.39393
-5.4513
-5.51482
-5.57967
-5.64082
-5.69983
-5.76286
-5.831
-5.90048
-5.96584
-6.02602
-6.08208
-6.13857
-6.1945
-5.22075
-5.23476
-5.2707
-5.32249
-5.38249
-5.44666
-5.51396
-5.58051
-5.64437
-5.70924
-5.77882
-5.85156
-5.92241
-5.98763
-6.04784
-6.10561
-6.16449
-6.22361
-5.18206
-5.1956
-5.23647
-5.29753
-5.36705
-5.43889
-5.51024
-5.57865
-5.64546
-5.7152
-5.78963
-5.86513
-5.93617
-6.00139
-6.06231
-6.12296
-6.18498
-6.24781
-5.13893
-5.15036
-5.19875
-5.26998
-5.34635
-5.42434
-5.50169
-5.57537
-5.64749
-5.72233
-5.79999
-5.87594
-5.94581
-6.0097
-6.0711
-6.13314
-6.19765
-6.26228
-5.09184
-5.09515
-5.16656
-5.25371
-5.32818
-5.40357
-5.48394
-5.56394
-5.64376
-5.72598
-5.80883
-5.88692
-5.95721
-6.02134
-6.08368
-6.14729
-6.21324
-6.27933
-5.04832
-5.00151
-5.12327
-5.25299
-5.33194
-5.40037
-5.47473
-5.55075
-5.62944
-5.71339
-5.7983
-5.87733
-5.94784
-6.01259
-6.07639
-6.14219
-6.21033
-6.27813
-5.06724
-4.87332
-5.00897
-5.19027
-5.31339
-5.4152
-5.50696
-5.58801
-5.6672
-5.75124
-5.83597
-5.91268
-5.97927
-6.03985
-6.10015
-6.16342
-6.23083
-6.30036
-5.20904
-4.96566
-4.95256
-5.00663
-5.10066
-5.22983
-5.35477
-5.4614
-5.56263
-5.66744
-5.7709
-5.86238
-5.93885
-6.00636
-6.07187
-6.13924
-6.21102
-6.28528
-4.93744
-5.56605
-5.69882
-5.56377
-5.48786
-5.51425
-5.56796
-5.61953
-5.68095
-5.75899
-5.84414
-5.92208
-5.98695
-6.04421
-6.10108
-6.16139
-6.22723
-6.2975
-1.88359
-3.65511
-4.67091
-4.95919
-5.1023
-5.26493
-5.4048
-5.51019
-5.60762
-5.71147
-5.81495
-5.9056
-5.97903
-6.04141
-6.10126
-6.16342
-6.22924
-6.29504
-7.22063
-7.20694
-7.22144
-7.27366
-7.34402
-7.41432
-7.47405
-7.51823
-7.54673
-7.56281
-7.57014
-7.57237
-7.57324
-7.57576
-7.58179
-7.59178
-7.6057
-7.62356
-7.64584
-7.6732
-7.70752
-7.75244
-7.81418
-7.899
-8.012
-8.15576
-8.33087
-8.53586
-8.76764
-9.02215
-9.29428
-9.57948
-9.8727
-10.1701
-10.4677
-10.7628
-11.0525
-11.3353
-11.609
-11.873
-12.1255
-12.3661
-12.5932
-12.807
-13.0059
-13.1902
-13.3586
-13.5112
-13.6466
-13.7651
-13.8646
-13.945
-14.0037
-14.0401
-14.0514
-14.0363
-13.9913
-13.915
-13.804
-13.6571
-13.4718
-13.2476
-12.9831
-12.6785
-12.333
-11.9471
-11.5208
-11.0553
-10.5516
-10.0117
-9.43766
-8.83242
-8.19905
-7.5404
-6.85979
-6.16038
-5.44728
-4.72396
-3.99571
-3.26545
-2.53804
-1.81584
-1.10365
-0.402458
0.283478
0.953475
1.60385
2.23407
2.84199
3.42763
3.99145
4.53289
5.05153
5.54735
6.0208
6.4723
6.90261
7.31239
7.70248
8.07366
8.42689
8.76303
9.08296
9.38744
9.67723
9.95314
10.2159
10.4663
10.7052
10.9331
11.1508
11.3588
11.5576
11.7476
11.9295
12.1035
12.27
12.4298
12.5829
12.7296
12.8698
13.0035
13.1311
13.2528
13.3689
13.4798
13.5855
13.6864
13.7827
13.8748
13.9627
14.0465
14.1262
14.2025
14.2755
14.3454
14.412
14.4754
14.536
14.5944
14.6503
14.7037
14.7546
14.8035
14.8503
14.8954
14.9392
14.9816
15.0221
15.0613
15.1004
15.1391
15.1769
15.2146
15.2527
15.2908
15.3288
15.3674
15.4069
15.4469
15.486
15.5228
15.5569
15.5877
15.6144
15.6359
15.6521
15.6633
15.6707
15.6754
15.6775
15.6775
15.6772
15.6776
15.68
15.6868
15.7011
15.7263
15.7783
15.8385
-7.29933
-7.31111
-7.34815
-7.40492
-7.47087
-7.53342
-7.58397
-7.6175
-7.63064
-7.62376
-7.6026
-7.57558
-7.55048
-7.53201
-7.52133
-7.51779
-7.52125
-7.53218
-7.55041
-7.57514
-7.60748
-7.6528
-7.72014
-7.81688
-7.94714
-8.1116
-8.30833
-8.53354
-8.78224
-9.04937
-9.32969
-9.61876
-9.91225
-10.207
-10.4999
-10.7891
-11.0725
-11.349
-11.6171
-11.8763
-12.1252
-12.3635
-12.59
-12.8043
-13.0053
-13.1925
-13.3648
-13.5216
-13.6617
-13.7844
-13.8882
-13.9723
-14.0346
-14.0738
-14.0878
-14.0751
-14.0333
-13.9608
-13.8555
-13.7163
-13.5413
-13.3295
-13.079
-12.7889
-12.4581
-12.0869
-11.6752
-11.2238
-10.7337
-10.2066
-9.64455
-9.05029
-8.42648
-7.77576
-7.10173
-6.40781
-5.69845
-4.97805
-4.25103
-3.52068
-2.7919
-2.06769
-1.35166
-0.64637
0.0447418
0.720078
1.37675
2.01364
2.62855
3.22155
3.79265
4.34127
4.86706
5.37004
5.85062
6.30904
6.7461
7.16243
7.55886
7.93612
8.29524
8.63699
8.96237
9.27195
9.56669
9.84733
10.1146
10.3693
10.6124
10.8443
11.0658
11.2776
11.48
11.6734
11.8585
12.0356
12.2047
12.3663
12.5209
12.6688
12.8104
12.9456
13.0748
13.1981
13.3158
13.4282
13.5357
13.6384
13.7363
13.8299
13.9194
14.0048
14.0862
14.1639
14.2384
14.3096
14.3776
14.4424
14.5043
14.5639
14.621
14.6755
14.7276
14.7778
14.8258
14.8716
14.9164
14.96
15.0016
15.0417
15.0818
15.1218
15.1605
15.1987
15.2377
15.2769
15.3158
15.355
15.3946
15.4349
15.4743
15.5114
15.5457
15.5769
15.604
15.6262
15.6433
15.6552
15.6634
15.669
15.6719
15.6723
15.6725
15.6734
15.6756
15.6814
15.6933
15.7146
15.7582
15.8024
-7.39981
-7.4307
-7.47281
-7.51876
-7.56531
-7.60589
-7.63488
-7.64909
-7.647
-7.62936
-7.60006
-7.56545
-7.53203
-7.50415
-7.48412
-7.47404
-7.47688
-7.4954
-7.53091
-7.58345
-7.65344
-7.74243
-7.8533
-7.98825
-8.148
-8.33157
-8.53677
-8.76063
-8.99976
-9.25105
-9.51114
-9.77726
-10.0466
-10.3172
-10.5868
-10.8542
-11.1177
-11.3765
-11.6292
-11.8753
-12.1135
-12.3434
-12.5637
-12.7741
-12.9733
-13.1605
-13.3347
-13.4951
-13.6402
-13.7691
-13.8803
-13.9726
-14.0437
-14.0922
-14.116
-14.1135
-14.0826
-14.0215
-13.9285
-13.8021
-13.6407
-13.4427
-13.2065
-12.9309
-12.6149
-12.2585
-11.8614
-11.4241
-10.9474
-10.4329
-9.88259
-9.29859
-8.68333
-8.03969
-7.37125
-6.68202
-5.97626
-5.25816
-4.53191
-3.80129
-3.07064
-2.34363
-1.62376
-0.914071
-0.217604
0.463328
1.12629
1.76941
2.39122
2.9912
3.56937
4.12503
4.65768
5.16752
5.65472
6.11964
6.56298
6.98544
7.38769
7.77062
8.13516
8.48213
8.81246
9.12673
9.42597
9.71084
9.98231
10.241
10.4879
10.7234
10.9485
11.1636
11.3693
11.566
11.7543
11.9345
12.107
12.272
12.4302
12.5817
12.7266
12.8651
12.9975
13.1239
13.2447
13.3601
13.4704
13.5758
13.6764
13.7725
13.8644
13.9522
14.0359
14.1158
14.1923
14.2654
14.3353
14.4019
14.4656
14.5268
14.5854
14.6414
14.6949
14.7464
14.7957
14.8428
14.8887
14.9335
14.9763
15.0177
15.059
15.1
15.1398
15.179
15.2189
15.259
15.2986
15.3385
15.3785
15.4191
15.4588
15.4962
15.5311
15.563
15.5907
15.6139
15.6319
15.6449
15.654
15.6606
15.6643
15.6654
15.6661
15.6673
15.6695
15.6744
15.6838
15.7003
15.7316
15.7508
-7.37638
-7.4187
-7.46584
-7.50478
-7.54057
-7.57109
-7.59192
-7.6006
-7.5965
-7.58092
-7.5573
-7.5307
-7.50645
-7.48894
-7.48167
-7.48816
-7.51214
-7.5563
-7.62146
-7.70669
-7.81062
-7.93213
-8.07089
-8.22664
-8.39905
-8.58727
-8.78995
-9.00547
-9.23188
-9.46737
-9.70978
-9.95735
-10.2081
-10.4606
-10.7132
-10.9649
-11.214
-11.46
-11.7015
-11.938
-12.1683
-12.3917
-12.6071
-12.814
-13.0112
-13.1978
-13.3727
-13.5351
-13.6833
-13.8165
-13.9329
-14.0312
-14.1094
-14.1658
-14.1984
-14.2054
-14.1846
-14.1344
-14.0526
-13.9376
-13.7877
-13.6012
-13.3763
-13.1118
-12.8068
-12.4607
-12.0733
-11.6448
-11.176
-10.6683
-10.1235
-9.54352
-8.93093
-8.28876
-7.62069
-6.93079
-6.22331
-5.50245
-4.7725
-4.03756
-3.30185
-2.56927
-1.84343
-1.12759
-0.424728
0.262525
0.931844
1.58126
2.20926
2.81553
3.3996
3.96088
4.49895
5.01388
5.50597
5.97558
6.4234
6.85009
7.25642
7.64326
8.01151
8.36204
8.69566
9.01321
9.31549
9.60337
9.87769
10.1393
10.3889
10.6273
10.855
11.0727
11.281
11.4803
11.671
11.8537
12.0286
12.1962
12.3569
12.5107
12.658
12.7989
12.9335
13.0622
13.1853
13.3029
13.4153
13.5227
13.6254
13.7235
13.8173
13.9069
13.9924
14.0741
14.1523
14.227
14.2984
14.3665
14.4317
14.4943
14.5541
14.6114
14.666
14.7185
14.7687
14.817
14.8639
14.9094
14.9532
14.9958
15.0379
15.0794
15.1201
15.1602
15.2006
15.241
15.281
15.321
15.3613
15.4016
15.4412
15.4788
15.5141
15.5465
15.575
15.5991
15.6181
15.6324
15.6428
15.6503
15.6549
15.6569
15.658
15.6596
15.6616
15.6649
15.6714
15.6818
15.7003
15.6999
-7.18205
-7.24333
-7.31501
-7.36327
-7.3997
-7.42899
-7.45006
-7.46271
-7.46817
-7.46842
-7.46617
-7.46492
-7.46857
-7.48082
-7.50505
-7.54404
-7.59986
-7.67353
-7.76501
-7.87346
-7.9978
-8.13684
-8.2897
-8.4556
-8.63377
-8.82333
-9.02324
-9.23241
-9.44958
-9.67362
-9.90315
-10.1371
-10.374
-10.613
-10.8527
-11.0923
-11.3306
-11.567
-11.8003
-12.0299
-12.2546
-12.4738
-12.6864
-12.8918
-13.0886
-13.2761
-13.453
-13.6184
-13.7707
-13.9088
-14.0311
-14.136
-14.2217
-14.2864
-14.3281
-14.3447
-14.3341
-14.2943
-14.2232
-14.1188
-13.9791
-13.8023
-13.5868
-13.3309
-13.0337
-12.6943
-12.3125
-11.8884
-11.4226
-10.9163
-10.3713
-9.78973
-9.17416
-8.52781
-7.85451
-7.15844
-6.44395
-5.71538
-4.97718
-4.23374
-3.48936
-2.74812
-2.01379
-1.28978
-0.57911
0.115467
0.791619
1.4474
2.08148
2.69314
3.28226
3.84801
4.39005
4.90854
5.40382
5.8764
6.32687
6.75603
7.16465
7.55369
7.92395
8.27647
8.61188
8.93131
9.23531
9.52509
9.80123
10.0648
10.3163
10.5566
10.7862
11.0058
11.2158
11.4168
11.6092
11.7935
11.97
12.1392
12.3013
12.4567
12.6054
12.7478
12.8839
13.0141
13.1386
13.2577
13.3716
13.4805
13.5846
13.6842
13.7793
13.8703
13.9572
14.0403
14.1198
14.1958
14.2684
14.3379
14.4043
14.468
14.5289
14.5871
14.6428
14.6961
14.7473
14.7966
14.8442
14.8903
14.9349
14.9784
15.021
15.063
15.1042
15.1449
15.1853
15.2257
15.2657
15.3056
15.3454
15.3851
15.4241
15.4615
15.4968
15.5293
15.5584
15.5831
15.603
15.6185
15.6302
15.6388
15.6444
15.6471
15.6488
15.6507
15.6523
15.6538
15.6568
15.6607
15.6679
15.6529
-6.88763
-6.97514
-7.07927
-7.14462
-7.18786
-7.22146
-7.24865
-7.27186
-7.29407
-7.31799
-7.34573
-7.37919
-7.42035
-7.47103
-7.53287
-7.60717
-7.69491
-7.79646
-7.91165
-8.03989
-8.18034
-8.33215
-8.49448
-8.66657
-8.84772
-9.03724
-9.23437
-9.43844
-9.64863
-9.86425
-10.0844
-10.3084
-10.5353
-10.7644
-10.9947
-11.2257
-11.4563
-11.686
-11.9136
-12.1388
-12.3602
-12.5774
-12.7892
-12.9948
-13.193
-13.3831
-13.5635
-13.7334
-13.8911
-14.0355
-14.1649
-14.2776
-14.3718
-14.4457
-14.4971
-14.5239
-14.5239
-14.4948
-14.4344
-14.3404
-14.2107
-14.0432
-13.8361
-13.5876
-13.2966
-12.962
-12.5833
-12.1606
-11.6945
-11.1861
-10.6371
-10.0498
-9.42706
-8.77217
-8.08915
-7.38234
-6.65637
-5.91583
-5.16542
-4.40979
-3.65346
-2.90069
-2.15542
-1.42122
-0.701198
0.00182998
0.685553
1.34809
1.98799
2.60495
3.19842
3.76785
4.31291
4.83387
5.33116
5.80541
6.25728
6.6876
7.09728
7.48723
7.85843
8.21172
8.54808
8.86832
9.1734
9.46415
9.74149
10.0061
10.2588
10.5003
10.7311
10.9518
11.1631
11.3653
11.5589
11.7443
11.9219
12.0922
12.2554
12.4118
12.5617
12.7051
12.8423
12.9736
13.0992
13.2195
13.3346
13.4446
13.5499
13.6506
13.7469
13.839
13.927
14.0113
14.0918
14.1689
14.2426
14.3132
14.3807
14.4454
14.5073
14.5665
14.6232
14.6775
14.7296
14.7798
14.8282
14.875
14.9205
14.9646
15.0079
15.0503
15.092
15.133
15.1735
15.2137
15.2534
15.2928
15.3319
15.3707
15.4088
15.4456
15.4804
15.5127
15.5416
15.5666
15.5873
15.6038
15.6167
15.6262
15.6327
15.6363
15.6385
15.6405
15.6414
15.6411
15.6405
15.6383
15.6358
15.609
-6.59179
-6.69748
-6.8281
-6.9113
-6.96549
-7.00878
-7.04768
-7.0863
-7.12863
-7.17769
-7.235
-7.3012
-7.37663
-7.46161
-7.5565
-7.66158
-7.77698
-7.90261
-8.0381
-8.18299
-8.33672
-8.49869
-8.66831
-8.84513
-9.02864
-9.21845
-9.41405
-9.61509
-9.82103
-10.0315
-10.2458
-10.4636
-10.6842
-10.9072
-11.1317
-11.3574
-11.5833
-11.8091
-12.0337
-12.2567
-12.477
-12.6941
-12.9067
-13.1143
-13.3155
-13.5094
-13.6948
-13.8704
-14.0348
-14.1867
-14.3242
-14.4459
-14.5497
-14.6337
-14.6957
-14.7335
-14.7447
-14.7269
-14.6776
-14.5944
-14.4748
-14.3167
-14.1178
-13.8764
-13.5908
-13.2599
-12.883
-12.4601
-11.9917
-11.4787
-10.9231
-10.3272
-9.69405
-9.02723
-8.33097
-7.60985
-6.86881
-6.11283
-5.34692
-4.57606
-3.80503
-3.03831
-2.28005
-1.53394
-0.803238
-0.0907679
0.601151
1.27069
1.91662
2.53841
3.13592
3.70844
4.25585
4.77852
5.27706
5.75213
6.20461
6.63532
7.04535
7.43551
7.80702
8.1605
8.49715
8.81758
9.12303
9.41408
9.69192
9.95698
10.2103
10.4523
10.6838
10.9052
11.1173
11.3202
11.5146
11.7009
11.8794
12.0505
12.2146
12.3718
12.5226
12.6668
12.805
12.9372
13.0639
13.1851
13.3012
13.4122
13.5185
13.6202
13.7175
13.8106
13.8996
13.9848
14.0664
14.1444
14.2191
14.2906
14.3591
14.4247
14.4876
14.5478
14.6054
14.6607
14.7139
14.765
14.8143
14.8621
14.9084
14.9533
14.9973
15.0403
15.0824
15.1237
15.1643
15.2044
15.2438
15.2826
15.3209
15.3587
15.3957
15.4315
15.4655
15.497
15.5255
15.5504
15.5715
15.5888
15.6023
15.6127
15.6201
15.6248
15.6275
15.6291
15.629
15.6269
15.623
15.6154
15.6047
15.5684
-6.36032
-6.47351
-6.61766
-6.71463
-6.78093
-6.83664
-6.88994
-6.94545
-7.00711
-7.07782
-7.15883
-7.25008
-7.35112
-7.46147
-7.58063
-7.7082
-7.84379
-7.98702
-8.13748
-8.29477
-8.45844
-8.62818
-8.8036
-8.98443
-9.1704
-9.36134
-9.55692
-9.75697
-9.96111
-10.1692
-10.3807
-10.5954
-10.8129
-11.0328
-11.2546
-11.4779
-11.7019
-11.9264
-12.1504
-12.3736
-12.5949
-12.8138
-13.0291
-13.2403
-13.446
-13.6454
-13.837
-14.0198
-14.1921
-14.3527
-14.4996
-14.6313
-14.7458
-14.841
-14.9146
-14.9644
-14.9877
-14.9819
-14.9445
-14.8726
-14.7638
-14.6154
-14.4251
-14.1907
-13.9104
-13.5828
-13.2071
-12.7829
-12.3108
-11.7917
-11.2275
-10.6208
-9.97472
-9.29326
-8.58089
-7.84255
-7.08355
-6.30932
-5.52527
-4.73674
-3.94882
-3.16629
-2.39346
-1.63422
-0.891868
-0.169298
0.531235
1.20797
1.85973
2.48632
3.08746
3.66271
4.21205
4.73605
5.2354
5.71096
6.16365
6.5945
7.00443
7.39451
7.76564
8.11888
8.45507
8.77528
9.08039
9.37139
9.64906
9.91422
10.1676
10.4098
10.6416
10.8634
11.0758
11.2792
11.4742
11.661
11.8402
12.012
12.1768
12.3348
12.4862
12.6312
12.7702
12.9033
13.0308
13.1529
13.2699
13.3819
13.4891
13.5917
13.6899
13.7839
13.8739
13.9599
14.0424
14.1213
14.1969
14.2693
14.3387
14.4052
14.4689
14.53
14.5886
14.6449
14.699
14.7511
14.8015
14.8502
14.8975
14.9434
14.9881
15.0317
15.0744
15.116
15.1568
15.1969
15.2361
15.2744
15.3119
15.3487
15.3846
15.4192
15.452
15.4826
15.5103
15.5347
15.5558
15.5734
15.5874
15.5984
15.6065
15.6122
15.6155
15.6164
15.6154
15.6116
15.6047
15.5925
15.5749
15.5309
-6.2192
-6.33219
-6.47568
-6.5793
-6.65507
-6.72181
-6.78802
-6.85796
-6.93494
-7.0215
-7.11869
-7.22638
-7.34378
-7.47008
-7.6044
-7.74602
-7.89429
-8.04874
-8.20885
-8.37432
-8.5448
-8.72007
-8.89986
-9.08407
-9.27246
-9.46498
-9.66144
-9.86179
-10.0658
-10.2734
-10.4842
-10.6983
-10.9151
-11.1345
-11.3559
-11.5793
-11.8039
-12.0294
-12.2551
-12.4805
-12.7048
-12.9274
-13.1472
-13.3637
-13.5754
-13.7817
-13.9809
-14.1721
-14.3536
-14.5241
-14.6816
-14.8246
-14.9508
-15.0583
-15.1446
-15.2073
-15.2436
-15.2509
-15.2262
-15.1666
-15.0693
-14.9313
-14.7501
-14.5231
-14.2483
-13.9241
-13.5492
-13.1232
-12.6466
-12.1202
-11.546
-10.9267
-10.2658
-9.5675
-8.83672
-8.07885
-7.29961
-6.50495
-5.70077
-4.89278
-4.08645
-3.28683
-2.49844
-1.72528
-0.970756
-0.237733
0.471583
1.15556
1.81322
2.44439
3.04908
3.62694
4.17809
4.70334
5.20338
5.67927
6.13185
6.56237
6.97168
7.36108
7.7313
8.08373
8.41902
8.73854
9.04291
9.33343
9.61059
9.8755
10.1286
10.3708
10.6025
10.8245
11.037
11.2408
11.436
11.6234
11.803
11.9754
12.1407
12.2994
12.4513
12.5971
12.7368
12.8708
12.999
13.1221
13.2398
13.3527
13.4607
13.5643
13.6633
13.7582
13.849
13.936
14.0193
14.099
14.1755
14.2488
14.319
14.3863
14.4509
14.5129
14.5723
14.6295
14.6847
14.7379
14.7893
14.839
14.8873
14.9341
14.9796
15.0239
15.0672
15.1093
15.1504
15.1905
15.2295
15.2675
15.3045
15.3404
15.3751
15.4084
15.44
15.4693
15.496
15.5198
15.5406
15.5581
15.5722
15.5835
15.592
15.5984
15.6022
15.6028
15.6008
15.5957
15.5862
15.5699
15.5466
15.4963
-6.16642
-6.27131
-6.40283
-6.50506
-6.58497
-6.65801
-6.73224
-6.81161
-6.89853
-6.99482
-7.10131
-7.21797
-7.34401
-7.47861
-7.62079
-7.76978
-7.92481
-8.08536
-8.25092
-8.42119
-8.5958
-8.77466
-8.95754
-9.14434
-9.3349
-9.52923
-9.72715
-9.9287
-10.1337
-10.3423
-10.5541
-10.7691
-10.987
-11.2078
-11.431
-11.6564
-11.8834
-12.1119
-12.341
-12.5705
-12.7994
-13.0274
-13.2532
-13.4764
-13.6956
-13.91
-14.1182
-14.319
-14.5108
-14.6923
-14.8615
-15.0167
-15.1557
-15.2765
-15.3764
-15.453
-15.5034
-15.5247
-15.5137
-15.4673
-15.3823
-15.2556
-15.0842
-14.8653
-14.5964
-14.2757
-13.9016
-13.4737
-12.9919
-12.4574
-11.8722
-11.239
-10.5617
-9.8449
-9.094
-8.31487
-7.51379
-6.69722
-5.87158
-5.04304
-4.21741
-3.4
-2.59554
-1.80812
-1.04115
-0.297503
0.420705
1.11199
1.77557
2.41146
3.01974
3.60013
4.15294
4.67898
5.17928
5.65485
6.10684
6.53635
6.94462
7.33266
7.70169
8.05271
8.38689
8.70519
9.00869
9.29826
9.5748
9.83906
10.0918
10.3336
10.5652
10.787
10.9997
11.2035
11.3991
11.5867
11.7668
11.9397
12.1055
12.2646
12.4173
12.5637
12.7041
12.8388
12.9679
13.0917
13.2103
13.324
13.4329
13.5373
13.6373
13.733
13.8247
13.9125
13.9966
14.0773
14.1546
14.2287
14.2997
14.3679
14.4333
14.4961
14.5565
14.6146
14.6707
14.725
14.7774
14.8282
14.8774
14.9252
14.9715
15.0166
15.0604
15.103
15.1444
15.1847
15.2237
15.2615
15.298
15.3331
15.3668
15.3988
15.4289
15.4569
15.4824
15.5054
15.5256
15.543
15.5572
15.5684
15.577
15.5836
15.5875
15.588
15.5855
15.5791
15.5676
15.5479
15.5197
15.4642
-6.17887
-6.26843
-6.38081
-6.47501
-6.55365
-6.62808
-6.7049
-6.78778
-6.87883
-6.97936
-7.08968
-7.20976
-7.33891
-7.4764
-7.62133
-7.773
-7.93062
-8.09368
-8.26162
-8.43416
-8.61096
-8.79187
-8.97668
-9.16541
-9.35786
-9.55405
-9.75383
-9.95726
-10.1642
-10.3747
-10.5886
-10.806
-11.0264
-11.25
-11.4763
-11.7053
-11.9362
-12.1692
-12.4032
-12.6382
-12.8732
-13.1078
-13.3409
-13.5721
-13.7998
-14.0235
-14.2416
-14.4531
-14.6562
-14.8496
-15.0313
-15.1996
-15.3522
-15.4871
-15.6015
-15.6928
-15.7581
-15.7942
-15.7977
-15.7653
-15.6934
-15.5787
-15.4178
-15.2075
-14.945
-14.628
-14.2549
-13.8247
-13.3375
-12.7943
-12.1972
-11.5492
-10.8545
-10.1181
-9.34598
-8.54454
-7.7207
-6.88148
-6.03379
-5.18423
-4.33897
-3.5036
-2.68297
-1.88126
-1.1018
-0.347445
0.379719
1.0783
1.74755
2.38767
2.99892
3.58117
4.13494
4.66113
5.16103
5.63568
6.0865
6.5145
6.9212
7.30749
7.67489
8.0242
8.35694
8.6738
8.97615
9.26457
9.54028
9.80372
10.0559
10.2973
10.5286
10.7502
10.9628
11.1667
11.3625
11.5504
11.7308
11.9041
12.0704
12.23
12.3833
12.5303
12.6715
12.8068
12.9368
13.0613
13.1808
13.2953
13.4052
13.5104
13.6112
13.7078
13.8004
13.889
13.9741
14.0556
14.1337
14.2087
14.2806
14.3496
14.4159
14.4796
14.5409
14.6
14.6571
14.7123
14.7658
14.8176
14.8678
14.9165
14.9637
15.0094
15.0538
15.0969
15.1387
15.1791
15.2182
15.2558
15.2919
15.3264
15.3591
15.3898
15.4184
15.4449
15.4692
15.4913
15.5109
15.528
15.5423
15.5535
15.5621
15.5686
15.5722
15.5723
15.5692
15.562
15.5491
15.5265
15.494
15.4343
-6.22442
-6.29547
-6.38503
-6.46617
-6.53905
-6.61103
-6.6868
-6.76924
-6.85992
-6.96003
-7.06982
-7.18924
-7.31763
-7.45444
-7.59877
-7.75004
-7.90748
-8.0706
-8.23886
-8.41198
-8.58956
-8.77148
-8.95751
-9.14762
-9.34168
-9.53973
-9.74162
-9.9474
-10.1569
-10.3703
-10.5872
-10.8079
-11.032
-11.2595
-11.4901
-11.7237
-11.9598
-12.1983
-12.4384
-12.68
-12.9221
-13.1644
-13.4058
-13.6457
-13.883
-14.1167
-14.3455
-14.5683
-14.7833
-14.9893
-15.1841
-15.3661
-15.5329
-15.6823
-15.8117
-15.9182
-15.9988
-16.0501
-16.0686
-16.0505
-15.9922
-15.8898
-15.7396
-15.5382
-15.2822
-14.969
-14.5968
-14.1642
-13.6713
-13.1191
-12.5097
-11.8464
-11.1339
-10.3775
-9.5838
-8.75985
-7.91317
-7.05135
-6.18177
-5.31142
-4.44674
-3.59357
-2.75699
-1.94126
-1.14983
-0.385515
0.349779
1.05466
1.72864
2.37203
2.98529
3.56857
4.12241
4.64808
5.1468
5.62002
6.06901
6.49516
6.89972
7.28406
7.64934
7.99689
8.32779
8.64319
8.94405
9.23137
9.50596
9.76864
10.0201
10.261
10.4919
10.7133
10.9258
11.1298
11.3256
11.5138
11.6946
11.8682
12.035
12.1951
12.3489
12.4966
12.6385
12.7746
12.9053
13.0307
13.151
13.2664
13.3771
13.4832
13.5849
13.6824
13.7759
13.8654
13.9514
14.0338
14.1128
14.1887
14.2615
14.3314
14.3986
14.4632
14.5255
14.5856
14.6437
14.7
14.7545
14.8073
14.8584
14.9079
14.9559
15.0023
15.0473
15.0908
15.1329
15.1736
15.2127
15.2502
15.2859
15.3197
15.3514
15.3808
15.408
15.4331
15.4561
15.4773
15.4963
15.5132
15.5275
15.539
15.5477
15.5539
15.5569
15.5564
15.5524
15.5441
15.53
15.5054
15.4694
15.4064
-6.27277
-6.32588
-6.39241
-6.4579
-6.5218
-6.58824
-6.6601
-6.73944
-6.82726
-6.92443
-7.03111
-7.14735
-7.27263
-7.40655
-7.5483
-7.69733
-7.85295
-8.01471
-8.18206
-8.35474
-8.53235
-8.71472
-8.90158
-9.09289
-9.28847
-9.48835
-9.69244
-9.90077
-10.1132
-10.3299
-10.5506
-10.7754
-11.0039
-11.2363
-11.4722
-11.7115
-11.9536
-12.1986
-12.4456
-12.6945
-12.9444
-13.1951
-13.4453
-13.6946
-13.9418
-14.186
-14.4258
-14.6602
-14.8874
-15.106
-15.3141
-15.5098
-15.6907
-15.8547
-15.9989
-16.1205
-16.2163
-16.2827
-16.3159
-16.3121
-16.2671
-16.1769
-16.0374
-15.8447
-15.5951
-15.2857
-14.9142
-14.4793
-13.9807
-13.4196
-12.7981
-12.1199
-11.39
-10.6141
-9.79934
-8.95332
-8.0842
-7.20017
-6.30917
-5.41863
-4.5354
-3.66549
-2.81413
-1.98571
-1.18375
-0.410839
0.331003
1.04083
1.71805
2.36346
2.97755
3.56077
4.11376
4.63807
5.13496
5.60614
6.0528
6.47666
6.87877
7.26085
7.62385
7.96944
8.29841
8.61222
8.91154
9.19766
9.4711
9.73295
9.98363
10.2241
10.4545
10.6758
10.8881
11.0921
11.2881
11.4766
11.6576
11.8317
11.9988
12.1596
12.314
12.4624
12.6049
12.7419
12.8733
12.9996
13.1207
13.2371
13.3486
13.4556
13.5582
13.6567
13.751
13.8415
13.9284
14.0117
14.0917
14.1685
14.2422
14.313
14.3812
14.4469
14.5101
14.5713
14.6305
14.6878
14.7432
14.797
14.849
14.8994
14.9481
14.9952
15.0407
15.0847
15.1271
15.1679
15.207
15.2443
15.2796
15.3127
15.3434
15.3715
15.3973
15.421
15.443
15.4632
15.4818
15.4984
15.5129
15.5246
15.5336
15.5397
15.5424
15.5411
15.5359
15.5261
15.5102
15.484
15.4458
15.3805
-6.29961
-6.33756
-6.38373
-6.43364
-6.48733
-6.54658
-6.61273
-6.68716
-6.77048
-6.8633
-6.96563
-7.07757
-7.19861
-7.3285
-7.46657
-7.6124
-7.76534
-7.92502
-8.0909
-8.26264
-8.43987
-8.62244
-8.81004
-9.00256
-9.19982
-9.40181
-9.6084
-9.81964
-10.0354
-10.2558
-10.4806
-10.7099
-10.9435
-11.1812
-11.4228
-11.6683
-11.917
-12.1689
-12.4233
-12.6801
-12.9384
-13.1978
-13.4572
-13.7162
-13.9735
-14.2284
-14.4793
-14.7254
-14.9647
-15.1961
-15.4173
-15.6265
-15.8214
-15.9998
-16.1585
-16.295
-16.4055
-16.4867
-16.5344
-16.5445
-16.5125
-16.4342
-16.3051
-16.1208
-15.8775
-15.5718
-15.201
-14.7637
-14.2596
-13.6896
-13.0561
-12.3631
-11.6157
-10.8204
-9.9847
-9.11695
-8.226
-7.32059
-6.40933
-5.50003
-4.59998
-3.71524
-2.85129
-2.01244
-1.20213
-0.42298
0.323399
1.03621
1.71491
2.36071
2.97428
3.55613
4.10733
4.62932
5.12381
5.59225
6.03632
6.45738
6.85697
7.23643
7.59725
7.94063
8.26781
8.57985
8.87781
9.16258
9.43505
9.69597
9.94604
10.1859
10.4161
10.6371
10.8494
11.0534
11.2496
11.4383
11.6197
11.7942
11.9619
12.1232
12.2782
12.4273
12.5706
12.7084
12.8407
12.9678
13.0899
13.2071
13.3195
13.4275
13.5311
13.6304
13.7257
13.8172
13.905
13.9893
14.0703
14.148
14.2228
14.2946
14.3638
14.4305
14.4949
14.5571
14.6173
14.6756
14.7321
14.7868
14.8397
14.8908
14.9402
14.9879
15.034
15.0784
15.121
15.1619
15.2009
15.2379
15.2727
15.3049
15.3346
15.3615
15.386
15.4085
15.4295
15.4491
15.4673
15.4838
15.4983
15.5104
15.5197
15.526
15.5286
15.5268
15.5204
15.5089
15.4909
15.4626
15.4229
15.3565
-6.29141
-6.31579
-6.34589
-6.38229
-6.42595
-6.47746
-6.53705
-6.60548
-6.68318
-6.77069
-6.8678
-6.97464
-7.09085
-7.21628
-7.35034
-7.49271
-7.64276
-7.80018
-7.96449
-8.13534
-8.31234
-8.49527
-8.68386
-8.87794
-9.07729
-9.28186
-9.49147
-9.70616
-9.92578
-10.1504
-10.3798
-10.614
-10.8528
-11.0963
-11.344
-11.5959
-11.8516
-12.1108
-12.373
-12.638
-12.9048
-13.1733
-13.4422
-13.7111
-13.9788
-14.2445
-14.5067
-14.7645
-15.016
-15.2598
-15.4939
-15.7165
-15.9251
-16.1174
-16.2904
-16.441
-16.5659
-16.6612
-16.7227
-16.7459
-16.7262
-16.659
-16.5394
-16.3627
-16.1248
-15.8217
-15.4507
-15.0101
-14.4995
-13.9197
-13.2736
-12.5651
-11.8
-10.9852
-10.129
-9.24059
-8.32924
-7.40458
-6.47546
-5.55038
-4.63643
-3.74015
-2.8668
-2.0207
-1.20519
-0.422746
0.325871
1.0388
1.7174
2.36162
2.97311
3.5523
4.10062
4.61954
5.11098
5.5763
6.01742
6.43551
6.83244
7.20932
7.56795
7.90923
8.23468
8.54506
8.84174
9.12529
9.3969
9.65701
9.90658
10.146
10.3759
10.5967
10.8091
11.0133
11.2098
11.3987
11.5806
11.7555
11.9238
12.0857
12.2415
12.3913
12.5354
12.6739
12.8072
12.9352
13.0582
13.1763
13.2898
13.3987
13.5033
13.6036
13.6999
13.7924
13.8813
13.9666
14.0486
14.1274
14.2032
14.2761
14.3463
14.4141
14.4796
14.5429
14.6042
14.6634
14.7208
14.7764
14.8301
14.882
14.9321
14.9804
15.0269
15.0716
15.1144
15.1553
15.1941
15.2306
15.2647
15.2961
15.3246
15.3504
15.3738
15.3954
15.4157
15.4348
15.4528
15.4693
15.4841
15.4965
15.5062
15.5127
15.5153
15.5132
15.506
15.4931
15.4729
15.4422
15.4009
15.3339
-6.24613
-6.25621
-6.27404
-6.29914
-6.33336
-6.37684
-6.4291
-6.49083
-6.5621
-6.64346
-6.73476
-6.83621
-6.94737
-7.06831
-7.19845
-7.33759
-7.4851
-7.64065
-7.80374
-7.9741
-8.15119
-8.33487
-8.5248
-8.72079
-8.9226
-9.13022
-9.34341
-9.56214
-9.78624
-10.0157
-10.2503
-10.4902
-10.735
-10.9847
-11.2389
-11.4978
-11.7605
-12.0274
-12.2974
-12.5706
-12.846
-13.1234
-13.4016
-13.6804
-13.9581
-14.2344
-14.5075
-14.7766
-15.0396
-15.2955
-15.5418
-15.7771
-15.9986
-16.204
-16.3902
-16.5543
-16.6922
-16.8005
-16.8743
-16.9094
-16.9004
-16.8426
-16.7308
-16.56
-16.3255
-16.0234
-15.6505
-15.205
-14.6864
-14.0959
-13.4362
-12.7121
-11.9296
-11.0964
-10.2215
-9.31471
-8.38604
-7.44567
-6.50265
-5.56595
-4.64237
-3.73902
-2.86029
-2.01132
-1.1943
-0.411746
0.335225
1.0467
1.72209
2.36321
2.97085
3.54614
4.0905
4.60578
5.09353
5.55555
5.99335
6.40863
6.80276
7.17736
7.53376
7.87327
8.19702
8.50614
8.80156
9.08426
9.35504
9.61467
9.86378
10.103
10.3327
10.5536
10.7661
10.9706
11.1674
11.3568
11.5391
11.7146
11.8835
12.0462
12.2027
12.3534
12.4984
12.6379
12.772
12.901
13.0251
13.1442
13.2587
13.3687
13.4743
13.5758
13.6732
13.7668
13.8568
13.9432
14.0263
14.1062
14.1831
14.2571
14.3285
14.3975
14.464
14.5284
14.5907
14.6509
14.7092
14.7656
14.8201
14.8728
14.9235
14.9723
15.0191
15.0641
15.1069
15.1477
15.1861
15.222
15.2553
15.2857
15.3132
15.338
15.3606
15.3816
15.4014
15.4203
15.4383
15.455
15.4701
15.483
15.4931
15.4999
15.5026
15.5004
15.4927
15.4786
15.4566
15.4239
15.381
15.3133
-6.17104
-6.16639
-6.17286
-6.18797
-6.213
-6.248
-6.29236
-6.34674
-6.41126
-6.48632
-6.57172
-6.66788
-6.77441
-6.8914
-7.01826
-7.1548
-7.30046
-7.45489
-7.61749
-7.78808