/*--------------------------------*- C++ -*----------------------------------*\
| =========                 |                                                 |
| \\      /  F ield         | OpenFOAM: The Open Source CFD Toolbox           |
|  \\    /   O peration     | Version:  2406                                  |
|   \\  /    A nd           | Website:  www.openfoam.com                      |
|    \\/     M anipulation  |                                                 |
\*---------------------------------------------------------------------------*/
FoamFile
{
    version     2.0;
    format      ascii;
    arch        "LSB;label=32;scalar=64";
    class       volScalarField;
    location    "50";
    object      k;
}
// * * * * * * * * * * * * * * * * * * * * * * * * * * * * * * * * * * * * * //

dimensions      [0 2 -2 0 0 0 0];

internalField   nonuniform List<scalar> 
71615
(
0.019677495
0.01968727
0.017011793
0.017007627
0.014899592
0.01489484
0.013256149
0.013251654
0.011955083
0.011950458
0.010923856
0.010921525
0.010124275
0.010125922
0.0095394571
0.0095505541
0.0091437043
0.0091686993
0.0088642753
0.0089066242
0.0085949159
0.0086465438
0.0082793743
0.008335684
0.007955262
0.0080611521
0.0077121139
0.0080569783
0.0077346081
0.0085154413
0.0082284836
0.0097375137
0.0096557155
0.012092628
0.012733183
0.015886527
0.017863186
0.021177806
0.024713624
0.027656786
0.032373366
0.034743719
0.039955448
0.041809285
0.019679932
0.019657939
0.019652911
0.01965204
0.019653432
0.019662216
0.019687963
0.017002816
0.016708402
0.016698872
0.01669541
0.016701975
0.016993218
0.017004223
0.014891887
0.014668074
0.01466447
0.014661576
0.014664499
0.014886392
0.014893272
0.013247645
0.013067491
0.013064696
0.013061107
0.013063957
0.013242421
0.013251288
0.011946514
0.011798672
0.011795459
0.011790186
0.011795367
0.011941328
0.011951714
0.010916963
0.01079803
0.010795807
0.010788325
0.010795858
0.010911827
0.010922651
0.010120581
0.010040627
0.010048582
0.010038912
0.010043983
0.0101176
0.010126167
0.0095405481
0.0095298102
0.0095736931
0.0095845927
0.0095501163
0.0095486549
0.0095426704
0.0091514017
0.0092336191
0.0093119873
0.0093999706
0.00927326
0.0091917546
0.00914362
0.0088780744
0.0093576256
0.013132743
0.016718
0.010706582
0.0089680595
0.0088592556
0.0086066701
0.012830016
0.03982454
0.052668811
0.024367546
0.0089250276
0.0085856048
0.0082747542
0.0247151
0.076373755
0.096580652
0.05057811
0.0097433549
0.0082649419
0.0080145548
0.040328903
0.10399298
0.12591372
0.074552161
0.012808701
0.007924581
0.0079729522
0.055402749
0.1212036
0.14117906
0.091964651
0.01903768
0.007686199
0.0083491152
0.068078172
0.1314135
0.14864017
0.10417606
0.027840854
0.0076658585
0.0094351429
0.078544023
0.13716841
0.15163608
0.11269388
0.037432602
0.0080612918
0.011604136
0.086988069
0.13919887
0.15145376
0.11793706
0.046733282
0.0092348504
0.01514714
0.092947684
0.13844669
0.14888565
0.12017624
0.054929424
0.011666689
0.020004624
0.096384486
0.13571984
0.14462838
0.12008492
0.061500631
0.015716024
0.025865708
0.097773039
0.13172645
0.1393423
0.11833853
0.066341268
0.021412474
0.032276252
0.097739483
0.12709611
0.13359156
0.1156189
0.069718937
0.028282343
0.038763624
0.097402963
0.12271594
0.12799131
0.11306439
0.072267592
0.035570214
0.01967306
0.019651798
0.019650803
0.019650774
0.019650802
0.019650778
0.019650794
0.019653372
0.019680949
0.016996241
0.01669118
0.01668107
0.016677523
0.016677403
0.016678823
0.01668454
0.016703966
0.016999439
0.014886025
0.014658122
0.01464979
0.014645164
0.014644426
0.014646791
0.014652573
0.014664446
0.014888674
0.013241464
0.013057567
0.013048559
0.013043518
0.01304217
0.013045241
0.013051359
0.013063879
0.013244536
0.011939373
0.011786816
0.011776128
0.011770838
0.011768637
0.011772727
0.011779927
0.01179716
0.011943636
0.010910374
0.01078663
0.010781798
0.010790687
0.010791999
0.010783834
0.010782999
0.010801077
0.010914423
0.010118279
0.010041244
0.01007393
0.010151051
0.010189976
0.010111154
0.010055663
0.01005329
0.01011855
0.0095503635
0.0095805566
0.0096717229
0.011008297
0.011926087
0.009964045
0.0096167942
0.0095600802
0.0095384816
0.0091801746
0.0094412601
0.026716815
0.10799311
0.14056971
0.064554108
0.011584137
0.0093011476
0.0091475566
0.0089303606
0.016079391
0.14437952
0.33452236
0.38324079
0.25246137
0.058098466
0.0095674197
0.0088732693
0.008684379
0.05300223
0.27135685
0.45389741
0.49619075
0.38022449
0.15576867
0.014281857
0.0086029954
0.0084311723
0.10379815
0.3183448
0.46458823
0.49700021
0.40681602
0.21744824
0.030045557
0.0082780861
0.0084860816
0.13660443
0.3208232
0.43871759
0.46447963
0.39244065
0.23715487
0.050533535
0.0079392623
0.0093480458
0.1518847
0.30898794
0.40672318
0.42786854
0.36846208
0.2386348
0.068831414
0.0077554158
0.011587809
0.15833014
0.29237622
0.3730809
0.39017258
0.34170724
0.23317361
0.082749496
0.0078658661
0.01576358
0.16028119
0.27357828
0.33930285
0.35291826
0.31399152
0.22424073
0.093414374
0.0085820407
0.021871979
0.15912484
0.25399548
0.30716665
0.31799726
0.28686928
0.21320266
0.10110415
0.010388786
0.02903928
0.15565264
0.23476517
0.27788717
0.28656621
0.2615448
0.20109922
0.10576802
0.013677074
0.036181132
0.15058283
0.21669273
0.25195681
0.25899424
0.23866973
0.18879793
0.10783172
0.018448145
0.042525725
0.14464014
0.20026222
0.22940453
0.23517607
0.21848164
0.17696013
0.10794086
0.024321292
0.047840163
0.13858061
0.18580051
0.21000498
0.21474997
0.20099248
0.16618319
0.10680779
0.030788163
0.052329071
0.13339416
0.1734528
0.1935359
0.1974406
0.18610314
0.15700075
0.1056581
0.037435221
0.019679951
0.019651741
0.019650692
0.0196507
0.019650748
0.019650758
0.01965074
0.019650714
0.019650642
0.019653941
0.019676198
0.017002777
0.016690247
0.016675222
0.016669656
0.016668923
0.016669308
0.016669865
0.016672164
0.016680764
0.016706353
0.017007778
0.014893248
0.014656955
0.014641846
0.014632276
0.014628498
0.014628094
0.014630602
0.014637004
0.014648338
0.014664615
0.01489846
0.013251051
0.013056399
0.013039595
0.013027196
0.013020013
0.013018894
0.013023222
0.013034181
0.013046787
0.013063222
0.013255481
0.011952505
0.011785714
0.011766657
0.011753712
0.011741504
0.011740381
0.011748547
0.011761997
0.011775186
0.011795358
0.01195478
0.010923312
0.010785638
0.010778395
0.010809306
0.010715016
0.010683016
0.010801449
0.010788204
0.010781264
0.010797939
0.01092326
0.010125791
0.010040729
0.010101276
0.010389718
0.013824084
0.016393387
0.011499619
0.010121581
0.010067761
0.010045971
0.010122038
0.0095444455
0.0095808921
0.01023755
0.065137739
0.25038875
0.30808223
0.1596592
0.019158031
0.0096586164
0.0095404855
0.0095303046
0.0091545545
0.0094399097
0.067078913
0.4250697
0.75422359
0.83342672
0.61631034
0.22979746
0.014295624
0.0092697524
0.0091199499
0.0088803208
0.016056998
0.2716784
0.70274175
1.0160472
1.0898993
0.88740263
0.49737345
0.088953758
0.0092839772
0.008823297
0.0086077199
0.052977094
0.39807717
0.75338331
0.99082197
1.0459488
0.89383857
0.59089089
0.20695885
0.011816578
0.0085442997
0.0082754336
0.10368801
0.4211961
0.68886789
0.85876077
0.89587591
0.78926874
0.56910591
0.26392826
0.021534839
0.0082262766
0.0080126994
0.13627751
0.40419004
0.61880898
0.75596644
0.78692544
0.69949516
0.52269523
0.27621509
0.03606856
0.007899144
0.0079675094
0.15142476
0.37852048
0.55418146
0.66088082
0.6837021
0.61775799
0.47624846
0.27159815
0.051152026
0.0076347737
0.0083330091
0.15779137
0.35015832
0.49056873
0.56936872
0.58530214
0.53838364
0.42958949
0.26095873
0.064306342
0.0075123136
0.0093922063
0.15968483
0.32087878
0.43135549
0.48915798
0.50036676
0.46698096
0.38442945
0.24747322
0.075168691
0.0077076557
0.011503269
0.15851038
0.29239336
0.37929039
0.42245365
0.43059474
0.40620955
0.34305504
0.23250342
0.084058705
0.0084988156
0.014947755
0.15505142
0.26596185
0.33498674
0.3680723
0.37420851
0.35579742
0.30660968
0.21710957
0.090512287
0.010413597
0.019671917
0.15001211
0.24224081
0.2978729
0.32390985
0.32869167
0.31435133
0.27524529
0.2021346
0.094398765
0.014046377
0.025379012
0.14410911
0.22145534
0.26697229
0.28789329
0.29171209
0.28027659
0.24862639
0.18817433
0.096179904
0.019813304
0.03163472
0.13809476
0.20356081
0.24115631
0.25825132
0.26136858
0.25206284
0.2261165
0.17571313
0.096486119
0.027014535
0.037983354
0.13294186
0.18836694
0.21978099
0.23412201
0.23675489
0.22893952
0.20724802
0.16506901
0.096436972
0.034664283
0.019657916
0.019650731
0.019650656
0.019650656
0.019650625
0.019650618
0.019650624
0.019650649
0.019650691
0.019650872
0.019669554
0.016707075
0.016678266
0.016667873
0.016664088
0.016662657
0.016662619
0.016663347
0.016665855
0.016671934
0.01668565
0.016995649
0.014665714
0.014645759
0.014629563
0.014619229
0.014613611
0.014612569
0.014615973
0.014624154
0.014637086
0.014650451
0.014886858
0.013064351
0.013043724
0.013023904
0.013007449
0.012998934
0.012997012
0.013002746
0.013015088
0.013034463
0.013048256
0.013243308
0.011795399
0.011771173
0.011750447
0.011734639
0.011756319
0.011759249
0.011753033
0.011736559
0.011761923
0.011776599
0.011944749
0.010795148
0.010777772
0.01080671
0.010738288
0.011149743
0.011476925
0.010844788
0.010749436
0.010782199
0.01077693
0.010920442
0.010039292
0.010071724
0.010389206
0.031771631
0.14264969
0.18825492
0.080225179
0.01380188
0.010049097
0.010038537
0.010134993
0.0095300337
0.0096730294
0.065081279
0.47972344
0.89518222
0.9949555
0.71799085
0.24423172
0.012865137
0.0095952437
0.009581843
0.0092346479
0.026664031
0.42522445
1.0537814
1.5359128
1.6492084
1.3332194
0.7475174
0.15737587
0.0096635339
0.0092400218
0.0093543612
0.14417954
0.7032099
1.2912346
1.7519138
1.8662534
1.5539292
1.008278
0.40875011
0.024452486
0.0090232079
0.012768933
0.27078541
0.75302829
1.1938516
1.5758958
1.6861825
1.4005544
0.98239535
0.51728476
0.076578897
0.0088847441
0.02446057
0.31727913
0.68770388
1.0026594
1.2221905
1.3396877
1.1607003
0.851669
0.51293667
0.13249843
0.0092945714
0.03978715
0.31937411
0.61741221
0.87513932
1.1003334
1.1625361
0.99554445
0.75065147
0.47733126
0.16183384
0.011095562
0.054572048
0.3073253
0.55286294
0.74689601
0.8809532
0.91180345
0.82331947
0.65733862
0.43871604
0.17334462
0.014620938
0.066987332
0.29066128
0.4894266
0.62784879
0.70639545
0.72230529
0.67466169
0.56719254
0.39925662
0.17674713
0.019635629
0.077210883
0.2719231
0.43039324
0.52936076
0.57797363
0.58694972
0.55928259
0.48782954
0.36037885
0.17609652
0.025962175
0.085486888
0.25246077
0.37848138
0.4511039
0.48339455
0.48898432
0.47145227
0.42161564
0.32405731
0.17261619
0.033055921
0.091382062
0.23337368
0.33430216
0.3893453
0.41229255
0.41610677
0.40404979
0.36751928
0.29149434
0.16708054
0.040228589
0.094830816
0.21544621
0.29728919
0.34031331
0.35754668
0.36034823
0.35148609
0.32353992
0.26305675
0.16024283
0.046768706
0.096282769
0.1991532
0.26647257
0.30092193
0.3144279
0.31660773
0.30974275
0.28765628
0.23863594
0.15281794
0.052282286
0.096337321
0.1848165
0.24072386
0.26888253
0.27986216
0.28164199
0.27608192
0.25811764
0.21784349
0.14551898
0.056782405
0.096093759
0.17257443
0.21939863
0.24314543
0.2525888
0.25415494
0.24933375
0.23406539
0.20031345
0.13932107
0.060504574
0.019677414
0.019652867
0.019650675
0.01965061
0.019650561
0.019650494
0.019650461
0.01965049
0.019650562
0.019650625
0.019650748
0.019657144
0.017010565
0.016696144
0.016673554
0.016664764
0.016660913
0.016659346
0.016658916
0.01665952
0.016662283
0.016667894
0.016680528
0.016988004
0.014898409
0.014660182
0.014639575
0.01462247
0.01461067
0.014604214
0.014602747
0.014606374
0.0146159
0.014630037
0.014647853
0.014882229
0.013255402
0.013059217
0.013037119
0.013012868
0.012995162
0.012977121
0.012973515
0.012987435
0.013003067
0.013025102
0.013046343
0.01323859
0.011955828
0.011789348
0.011764724
0.011734318
0.01175255
0.011748927
0.011629124
0.011756983
0.011732205
0.011751644
0.01177423
0.011938664
0.010926331
0.010790151
0.010785749
0.010703207
0.011148063
0.01570776
0.018875239
0.012710341
0.010745527
0.010799446
0.010778346
0.010914458
0.010127762
0.010045776
0.010148155
0.013803322
0.1424344
0.43388815
0.51706008
0.29664869
0.045497709
0.010348544
0.010062666
0.010134587
0.0095441358
0.0095753529
0.011003164
0.24987169
0.89517461
1.4302091
1.5557438
1.2039322
0.56449398
0.057710923
0.0096405894
0.0095994224
0.0091510667
0.0093156394
0.10739139
0.75458284
1.5374629
2.142472
2.2791317
1.8862818
1.1550074
0.39017298
0.015559385
0.0092882698
0.0088709339
0.013062749
0.33326807
1.0170314
1.7566381
2.364893
2.478912
2.1072236
1.385939
0.66796714
0.089973233
0.0091734661
0.0085998247
0.039145245
0.45163432
0.9881892
1.4968957
2.1677132
2.3417397
2.0179015
1.2622588
0.72508856
0.20040524
0.010518884
0.0082819139
0.074873328
0.46143959
0.85473086
1.2176808
1.7856996
2.2482946
1.7272192
1.0511275
0.66647596
0.25519785
0.01671548
0.0079549041
0.10180542
0.43524765
0.75242894
1.0982091
1.5077644
1.6105573
1.3095518
0.91350868
0.59961798
0.26733831
0.027773439
0.00770736
0.11858944
0.40329443
0.65806941
0.87967537
1.0554078
1.0958806
0.97736692
0.77230593
0.53814909
0.26331357
0.040750145
0.0077037968
0.12856407
0.36991215
0.5671437
0.70549385
0.78704375
0.8035482
0.75337498
0.64379745
0.47788397
0.25371256
0.052582498
0.008136672
0.13429716
0.33649043
0.48737408
0.57728491
0.61967586
0.62717187
0.60331089
0.53974105
0.42157197
0.24127983
0.062807344
0.0094185516
0.13643377
0.30471603
0.42099667
0.48284302
0.50759758
0.51146255
0.49861641
0.45827729
0.37176216
0.2272389
0.071131469
0.012192304
0.13585963
0.27576455
0.36686201
0.41183819
0.42795157
0.43023342
0.42240659
0.39460689
0.32913596
0.21264271
0.07741853
0.016885114
0.13334638
0.25011917
0.32289146
0.35716603
0.36864613
0.37018011
0.36484694
0.34436359
0.29323923
0.19831604
0.08171645
0.023266268
0.12957602
0.22781061
0.28702765
0.31410495
0.32289267
0.32404259
0.32005556
0.30415127
0.26320655
0.18482082
0.084260527
0.030534698
0.12515771
0.20861594
0.25750614
0.27958401
0.28672974
0.28767683
0.28444866
0.27153593
0.2380187
0.17256034
0.085444409
0.037840076
0.12096181
0.19230982
0.23346332
0.2523387
0.25871412
0.25961415
0.25665875
0.24543344
0.21709706
0.16190799
0.085801885
0.019687577
0.019651993
0.01965066
0.019650572
0.019650473
0.01965041
0.019650369
0.019650414
0.019650507
0.019650573
0.019650732
0.019654674
0.017006407
0.016693034
0.016672911
0.016664271
0.016660175
0.016659073
0.016658428
0.016658806
0.016661629
0.016666944
0.016678399
0.016708631
0.014894053
0.014658236
0.014638442
0.014621027
0.014608742
0.014602691
0.014600956
0.014604135
0.014614249
0.014628373
0.014644885
0.014662542
0.013251707
0.013056992
0.013035654
0.013010773
0.012992237
0.012972999
0.012970794
0.012983871
0.013001631
0.013022973
0.013043157
0.013060208
0.011951934
0.011785493
0.011762603
0.011732419
0.011754171
0.011629746
0.011547325
0.011744521
0.011734093
0.011749395
0.011771404
0.01179084
0.010922703
0.010784229
0.010787992
0.010677662
0.011471355
0.018866454
0.024114902
0.014000718
0.010809609
0.010798521
0.010779453
0.01078998
0.010129195
0.010037683
0.010188786
0.016318102
0.18772575
0.51697446
0.60690308
0.36453348
0.063357954
0.010467352
0.010069249
0.010030433
0.0095526775
0.009585836
0.011892325
0.30650818
0.99469104
1.5565539
1.6874719
1.3187234
0.64555984
0.078188964
0.0096148377
0.0095113038
0.0091733954
0.0094017521
0.13852437
0.83162049
1.6503896
2.2818517
2.4197892
2.0160268
1.2511663
0.45054713
0.021159151
0.0092158118
0.0089109259
0.016320187
0.37954464
1.0882165
1.8699695
2.4844042
2.5655115
2.2396115
1.4770651
0.72786841
0.11605962
0.0090992775
0.0086465963
0.050941994
0.49140522
1.0409887
1.6413831
2.3497421
2.359755
2.2489745
1.3328851
0.77076565
0.23378379
0.010718178
0.0083349588
0.09324973
0.49176688
0.89017979
1.3320069
2.2572531
2.3375757
2.1995264
1.1882356
0.69859601
0.28426564
0.016784169
0.0080471236
0.12194634
0.45935553
0.78263198
1.1617321
1.6150057
1.700897
1.401977
0.95317584
0.62522308
0.29125283
0.026575984
0.0080140352
0.1369943
0.42313128
0.68038334
0.91079468
1.0965707
1.1369656
1.0137791
0.79711523
0.55854802
0.28334162
0.037510441
0.0083989634
0.14448133
0.3859516
0.58257966
0.72120054
0.80339293
0.81976017
0.7691342
0.65873287
0.49344055
0.27037414
0.048098925
0.0094718966
0.14763171
0.34923877
0.49808955
0.58591606
0.62684449
0.63395611
0.6109398
0.5491083
0.43327792
0.25498608
0.057642886
0.011565934
0.14770781
0.31482348
0.42867445
0.48806972
0.51112343
0.51459839
0.50277018
0.46453206
0.38065573
0.23847427
0.066139033
0.014974681
0.1454561
0.28383699
0.37257884
0.41531164
0.42992129
0.43187256
0.42495063
0.39905516
0.33602353
0.22186633
0.073021912
0.019791363
0.14153251
0.25664403
0.32730065
0.35965982
0.36990235
0.37116982
0.36658092
0.34769721
0.29868738
0.20593105
0.077953868
0.025787654
0.13657046
0.23314563
0.29051817
0.31601107
0.32379804
0.32473468
0.32134888
0.30675285
0.26758823
0.19115324
0.081075749
0.032455369
0.13111744
0.21298616
0.26033461
0.28112092
0.28746108
0.28823648
0.28549168
0.27363782
0.2415813
0.17781191
0.082720722
0.039213243
0.12577016
0.19588691
0.23583574
0.25368141
0.25941404
0.26017586
0.25760566
0.24722546
0.22004645
0.16614506
0.082915466
0.019653422
0.01965062
0.019650554
0.0196505
0.019650379
0.019650343
0.019650391
0.019650485
0.019650576
0.019650743
0.019658653
0.01670056
0.016675351
0.0166665
0.016663107
0.016661007
0.016660268
0.016660785
0.016663567
0.016669252
0.016682612
0.016989708
0.01466269
0.014642594
0.014626322
0.014615543
0.014608942
0.01460689
0.01461057
0.014619703
0.014632847
0.014646994
0.014880793
0.013061834
0.01304103
0.013018694
0.013002112
0.012990322
0.012987142
0.012994793
0.01300907
0.013029393
0.01304376
0.01323564
0.011792508
0.011769134
0.011744589
0.011751976
0.011759544
0.011746915
0.011760189
0.011735691
0.011757163
0.011771744
0.011932339
0.010792789
0.010781771
0.010799633
0.010845419
0.012712933
0.014004828
0.011445128
0.010718222
0.010791116
0.010775703
0.010904597
0.010042972
0.010111481
0.011483175
0.079883507
0.29654141
0.36450791
0.1885761
0.025211591
0.010180654
0.010056321
0.010119979
0.0095519178
0.009960827
0.1580299
0.71721868
1.204924
1.3193176
0.99732268
0.42258456
0.031177157
0.00961989
0.0095749823
0.0092768776
0.063056292
0.61339715
1.333709
1.8901558
2.018018
1.6521167
0.98302364
0.28614196
0.011258052
0.0092512659
0.010617595
0.24793734
0.88433491
1.5562169
2.1160187
2.2426832
1.868468
1.225378
0.55936137
0.055094303
0.0090814846
0.02331032
0.37463434
0.88967529
1.4022316
2.0324613
2.2584904
1.8802991
1.1410675
0.63945822
0.14371569
0.0096231247
0.048115032
0.40104933
0.78473079
1.1587592
1.7443507
2.2139959
1.6423117
0.96109359
0.60336348
0.20300719
0.013044349
0.071080604
0.38682704
0.69540453
0.99502636
1.3139093
1.4044292
1.1561541
0.84036858
0.54883957
0.223459
0.020467858
0.087998111
0.36317957
0.61416164
0.82201466
0.97775853
1.0142056
0.90814484
0.72246188
0.49681769
0.22602127
0.031124316
0.099998089
0.3368971
0.5352017
0.67308372
0.75277108
0.7689446
0.71978596
0.61158442
0.44543131
0.22183463
0.042291183
0.10847428
0.30972439
0.46418818
0.5577331
0.6025083
0.61059498
0.5851288
0.51833927
0.39649967
0.21434688
0.052572911
0.11389771
0.28314025
0.40378037
0.4700406
0.49783016
0.50240783
0.48761084
0.4433277
0.35230568
0.2047509
0.061431976
0.11640805
0.25830524
0.35369255
0.40279866
0.42169115
0.42461066
0.41503438
0.38361387
0.31381308
0.19393038
0.068507396
0.11662995
0.23585669
0.31252713
0.35038722
0.36421049
0.36627316
0.35948733
0.33592089
0.28095352
0.18270036
0.073682993
0.1152062
0.21603337
0.27869082
0.30877916
0.31949335
0.32107383
0.31590316
0.2974494
0.25319922
0.17170707
0.077107901
0.11279286
0.19885298
0.2506763
0.27523491
0.28395006
0.28524553
0.28105642
0.26605931
0.22978642
0.16151642
0.079132957
0.11050754
0.1842149
0.22770292
0.24856486
0.25619863
0.2573774
0.25365025
0.24075396
0.21021355
0.1527491
0.08033373
0.019662238
0.019650689
0.019650579
0.019650521
0.019650499
0.019650483
0.019650508
0.019650527
0.019650597
0.019651194
0.019676757
0.016992516
0.01668361
0.016671672
0.016667668
0.016666794
0.016666688
0.016667258
0.016668895
0.016675002
0.016694156
0.016996206
0.014885981
0.014651481
0.014636805
0.014627332
0.014622664
0.014621694
0.014624805
0.014631491
0.014642433
0.014656513
0.014885788
0.01324266
0.013050177
0.01303425
0.013019099
0.013010793
0.013009877
0.013014478
0.013026819
0.013041726
0.01305562
0.013241842
0.011940627
0.011778626
0.011762295
0.011740911
0.011739719
0.011741577
0.011740459
0.011753348
0.011770267
0.0117873
0.011940927
0.010909751
0.010782385
0.010789409
0.010754284
0.010751977
0.010817059
0.010720465
0.01080566
0.01078207
0.010791404
0.010914731
0.010115987
0.010057788
0.010124448
0.013788491
0.045451342
0.063284904
0.025177745
0.010642499
0.010100901
0.010048946
0.010124425
0.0095492172
0.0096266658
0.018993357
0.24333966
0.56455212
0.64518264
0.42199697
0.090343982
0.0099155456
0.0095759033
0.0095578306
0.0091950943
0.011513827
0.22738202
0.7469744
1.156971
1.2509412
0.98190334
0.48644294
0.055970945
0.0093513796
0.0091939267
0.0089713319
0.056411399
0.49415909
1.0084863
1.3895927
1.4772502
1.2239576
0.76197088
0.24088132
0.011595719
0.0089523831
0.0089117595
0.15153319
0.58731364
0.98170193
1.2641238
1.3332529
1.140123
0.79659649
0.36913623
0.030505364
0.0087122825
0.0096222821
0.21247505
0.56523144
0.84978484
1.0506664
1.1885606
0.96060779
0.71800946
0.39737777
0.063176289
0.0084736409
0.012338789
0.23207573
0.51873896
0.74847691
0.91281893
0.95304973
0.84005408
0.64124998
0.38421945
0.090962413
0.0085261924
0.017924789
0.23365967
0.47240534
0.65500204
0.77104178
0.79656668
0.72213452
0.57176649
0.36139913
0.10920288
0.0093624557
0.026036719
0.22845735
0.42599658
0.56485318
0.64231363
0.65793667
0.61119947
0.50381274
0.3357543
0.12052179
0.011583572
0.035049818
0.21988748
0.38116303
0.48562736
0.53827605
0.548253
0.51793178
0.44120203
0.30901417
0.1275065
0.015525066
0.043945095
0.20926736
0.34013801
0.41961551
0.45692418
0.46370818
0.44293081
0.38669078
0.28271889
0.13084713
0.021195122
0.051935609
0.19758375
0.30402893
0.3657332
0.39338936
0.39829517
0.38324268
0.34066634
0.2580771
0.13131303
0.027798036
0.058480171
0.18567542
0.27296849
0.32195402
0.34327775
0.34700829
0.33558048
0.30233724
0.23576911
0.12967901
0.034480736
0.063403038
0.17419102
0.24661513
0.28624856
0.30318481
0.3061328
0.29714007
0.27055667
0.21607728
0.12664663
0.040671209
0.066898137
0.16372516
0.22433624
0.25686722
0.27067257
0.27307947
0.26577789
0.24408006
0.19905336
0.12294732
0.046210811
0.069551884
0.15480934
0.20565364
0.23293126
0.24464151
0.2467108
0.24049413
0.22222078
0.18456897
0.11983313
0.051149478
0.019688019
0.019653374
0.019650596
0.019650617
0.019650558
0.019650557
0.0196506
0.019650619
0.019650757
0.019656741
0.01700454
0.016704459
0.016682497
0.016675512
0.016673114
0.016673352
0.016675075
0.016677685
0.016684819
0.016987873
0.014893721
0.014665234
0.014651215
0.014642636
0.014638024
0.014637873
0.014641367
0.014646392
0.014652022
0.014883816
0.013251781
0.013064383
0.013050426
0.013041246
0.01303464
0.013033842
0.013038961
0.013046107
0.013052118
0.013240516
0.011953083
0.01179629
0.011779018
0.011769244
0.011761609
0.011760073
0.011766076
0.011773862
0.011782452
0.011935687
0.010924373
0.010798775
0.010785361
0.010789662
0.010807634
0.010808253
0.010798143
0.010784251
0.010783846
0.010902063
0.010127983
0.010051456
0.010073417
0.010056325
0.010358225
0.010474443
0.010184852
0.010103319
0.010044249
0.01010503
0.0095445767
0.0095619341
0.0096672616
0.012864655
0.057630759
0.077852747
0.030993216
0.0099165775
0.0096022632
0.0095409428
0.0091467456
0.0093067603
0.014152689
0.15658263
0.38998532
0.44913986
0.28450408
0.055669564
0.0096019768
0.0092005709
0.0088633704
0.0095486546
0.087384996
0.40772339
0.66815243
0.72635761
0.55701608
0.23973795
0.019369766
0.0090277308
0.0085881955
0.013968188
0.20425781
0.51601146
0.72473015
0.76933801
0.63730298
0.36782905
0.066497073
0.0093084648
0.0082645823
0.02882945
0.26087532
0.51113173
0.66529206
0.69713127
0.60161461
0.39622671
0.12328752
0.011430309
0.0079237675
0.048402639
0.27299712
0.47513929
0.59798817
0.62374137
0.54736453
0.38321101
0.15443126
0.017078831
0.0076711515
0.066124727
0.26831924
0.43630964
0.53628883
0.55705906
0.49551421
0.36050773
0.16702083
0.026946722
0.0076194857
0.079705804
0.25771091
0.3967888
0.47595473
0.49196331
0.44425227
0.33497738
0.17132482
0.039158814
0.0079310176
0.090171504
0.24434791
0.35797088
0.41969679
0.43186441
0.39543688
0.30834548
0.17128821
0.050938343
0.0089179056
0.097842301
0.22956862
0.32178728
0.37000824
0.37934322
0.35135557
0.28214629
0.16834742
0.061132506
0.011011248
0.1026279
0.21440086
0.28939837
0.32752703
0.33482452
0.31296562
0.25758575
0.16334192
0.069363548
0.014573049
0.10488051
0.19965958
0.26114134
0.29177545
0.29759902
0.28019613
0.23534376
0.15701585
0.075389028
0.019685936
0.10520926
0.18592309
0.23689285
0.26187849
0.26660212
0.25252042
0.21570617
0.15007015
0.079309143
0.026014258
0.10429704
0.17367084
0.21626175
0.23681277
0.24068732
0.22917527
0.19872556
0.14323611
0.081521924
0.032894827
0.10334505
0.16321072
0.19886608
0.21598819
0.21922581
0.20965716
0.18427495
0.13735778
0.082785547
0.019680923
0.019653967
0.019650909
0.019650762
0.019650764
0.019650808
0.019651263
0.019656706
0.019677741
0.016998838
0.016707704
0.016688904
0.016686063
0.01668554
0.016689113
0.016698481
0.016990174
0.017002962
0.014887655
0.01466685
0.01465553
0.014655759
0.0146552
0.014657592
0.014663271
0.014886592
0.0148924
0.013244034
0.013066438
0.013054682
0.013055598
0.013054771
0.013056227
0.013063462
0.013242578
0.01324875
0.011944115
0.011798856
0.011783907
0.011784042
0.011782523
0.011783768
0.011795001
0.011938758
0.01194734
0.010915043
0.010801334
0.010784504
0.010787938
0.010788827
0.010785143
0.01079764
0.010907
0.010916812
0.010119085
0.01005055
0.010045922
0.010071438
0.010077757
0.010062767
0.010054068
0.010109844
0.010115431
0.0095394501
0.0095480316
0.0096025442
0.0096478458
0.0096259724
0.0096270859
0.009580038
0.0095441525
0.0095222387
0.0091491774
0.0092782076
0.0096696583
0.015508834
0.02096433
0.011213165
0.0093531036
0.0092020263
0.009107878
0.0088742214
0.0092870519
0.024284924
0.089567348
0.11485232
0.054230165
0.011534596
0.009025126
0.0088076532
0.0086024726
0.011735651
0.075934479
0.19951508
0.23191405
0.14167419
0.030027613
0.0092931936
0.0085279129
0.0082758233
0.02109733
0.13136678
0.25400756
0.28228757
0.20067444
0.062144187
0.011370691
0.0082129539
0.0079326336
0.035180763
0.16036145
0.26591185
0.28929049
0.22125296
0.089662369
0.016920279
0.0078979517
0.0077378941
0.049869365
0.17168533
0.26169801
0.28140848
0.22396173
0.10782491
0.02665566
0.0076501574
0.0078121652
0.062720758
0.17494315
0.25196372
0.26849778
0.21994603
0.11918236
0.038769899
0.007607849
0.0084288299
0.073326553
0.17420089
0.23948424
0.25319938
0.21264291
0.12624561
0.050487461
0.0078966956
0.010029236
0.082033674
0.17069214
0.22547209
0.23680845
0.20323271
0.12970513
0.060653338
0.0087889156
0.012997886
0.088424145
0.16518547
0.21095175
0.22033392
0.19258242
0.13029239
0.068889695
0.010671335
0.017385613
0.092328882
0.15841716
0.1967243
0.20452967
0.18150167
0.12877098
0.074945939
0.013939635
0.022870418
0.094179033
0.15108505
0.18333685
0.18987368
0.17063658
0.12583773
0.078905648
0.018851273
0.028975159
0.094578971
0.14388839
0.17118227
0.17664203
0.16055511
0.12222542
0.081159457
0.025206793
0.035311909
0.094624198
0.13778606
0.16062428
0.16506715
0.15187771
0.11918499
0.082454343
0.032353881
0.019676406
0.019669536
0.019657122
0.019654737
0.019658636
0.019676762
0.017007677
0.016997672
0.016992433
0.016713391
0.016995702
0.016999562
0.014897822
0.014889222
0.014888913
0.014670393
0.014891382
0.014890924
0.01325482
0.013246483
0.013245652
0.013069222
0.013248113
0.01324813
0.011954809
0.01194859
0.011946084
0.011799816
0.011946443
0.011948593
0.010924058
0.010925147
0.01092204
0.010797778
0.010917474
0.010923283
0.010123436
0.010141806
0.010142845
0.01003886
0.010129914
0.010132651
0.0095327564
0.0095890481
0.009607266
0.0095204414
0.0095832771
0.00956526
0.0091241689
0.0092467711
0.0092958692
0.0092256411
0.0092599273
0.009200792
0.0088264524
0.0090265164
0.0091813556
0.0091053458
0.0090895893
0.0089583809
0.0085455918
0.0088836384
0.010505149
0.010674055
0.0095989669
0.0087176734
0.0082267168
0.0092787752
0.01659971
0.016550303
0.012871255
0.0084717874
0.0078988768
0.011027587
0.027460181
0.026089101
0.020016219
0.0084990845
0.00763213
0.014458938
0.040205885
0.036776718
0.030327912
0.0092746295
0.0075001217
0.019333876
0.051821499
0.047156979
0.041250595
0.011374499
0.0076689001
0.025479077
0.061866625
0.056511832
0.051380386
0.01514083
0.0083899996
0.032368651
0.070057374
0.0648681
0.060168538
0.02062176
0.010151028
0.039346761
0.07625838
0.071697199
0.0672331
0.027084615
0.013519402
0.045731962
0.080510448
0.07663255
0.072437219
0.033687428
0.018886014
0.051131226
0.083043578
0.079793614
0.075911108
0.039836821
0.025709194
0.055538779
0.084233122
0.081490683
0.077989655
0.045349876
0.033050148
0.059173999
0.084593719
0.081732044
0.079239196
0.050269554
0.019676398
0.019676777
0.017631712
0.017620355
0.019669546
0.019658594
0.017617643
0.017607716
0.019687565
0.017638064
0.01763417
0.019657072
0.019654707
0.017606289
0.017937978
0.019677479
0.017634347
0.017638004
0.019654664
0.019657098
0.017938181
0.017605269
0.01965858
0.019669524
0.017608793
0.017617167
0.019676778
0.019676398
0.017619978
0.017631487
0.033986609
0.051247857
0.039587425
0.054120496
0.060409149
0.080668095
0.062221297
0.081992431
0.041732988
0.045250015
0.046546947
0.086123019
0.083438236
0.086552388
0.094491945
0.040471983
0.046623135
0.04575019
0.083598441
0.086590632
0.094557466
0.086988124
0.081244711
0.061259329
0.082527887
0.063044354
0.052158673
0.035226561
0.055024741
0.040852745
0.019677712
0.017626694
0.019687977
0.017629429
0.019680953
0.019656736
0.017623388
0.01760468
0.017629451
0.019656665
0.019680918
0.017604047
0.017622778
0.01967769
0.017627339
0.030781384
0.036482811
0.034294985
0.039310413
0.036089554
0.082817416