/*--------------------------------*- C++ -*----------------------------------*\
| =========                 |                                                 |
| \\      /  F ield         | OpenFOAM: The Open Source CFD Toolbox           |
|  \\    /   O peration     | Version:  2406                                  |
|   \\  /    A nd           | Website:  www.openfoam.com                      |
|    \\/     M anipulation  |                                                 |
\*---------------------------------------------------------------------------*/
FoamFile
{
    version     2.0;
    format      ascii;
    arch        "LSB;label=32;scalar=64";
    class       volScalarField;
    location    "50";
    object      nut;
}
// * * * * * * * * * * * * * * * * * * * * * * * * * * * * * * * * * * * * * //

dimensions      [0 2 -1 0 0 0 0];

internalField   nonuniform List<scalar> 
71615
(
0.0019974648
0.0019974136
0.0019736417
0.0019735004
0.0019522343
0.0019521385
0.0019338954
0.0019338057
0.0019186377
0.00191853
0.0019073957
0.0019075286
0.0019023257
0.001902943
0.0019066959
0.0019084885
0.0019221012
0.0019256978
0.001943494
0.0019494844
0.0019599435
0.0019675859
0.0019651956
0.0019751996
0.0019662241
0.0019895836
0.0019819606
0.0020648697
0.0020588491
0.002256969
0.0022492878
0.0026283053
0.0026678848
0.0032636068
0.0034603771
0.0042111475
0.0046657628
0.0054519001
0.0062038144
0.0069153028
0.007946963
0.0085234064
0.0097748737
0.010212907
0.0019973502
0.00199716
0.0019971229
0.0019971151
0.001997126
0.001997204
0.0019974269
0.001973357
0.0019705045
0.0019704649
0.0019704472
0.0019704804
0.0019731007
0.0019734132
0.0019518899
0.0019494131
0.0019494853
0.0019494719
0.0019494017
0.0019515581
0.0019519904
0.0019334196
0.0019313011
0.0019314165
0.0019313508
0.0019312612
0.0019330744
0.0019336629
0.0019180983
0.0019164935
0.001916709
0.0019165213
0.0019165268
0.0019178361
0.001918447
0.0019069805
0.0019064864
0.0019070382
0.0019066898
0.0019067515
0.0019069181
0.0019073573
0.001902234
0.0019047498
0.0019069529
0.0019063635
0.001905906
0.001902708
0.0019025872
0.0019071546
0.0019168821
0.0019248398
0.0019285001
0.0019197759
0.001909313
0.0019071188
0.0019233742
0.0019434616
0.001966769
0.0019833228
0.0019453244
0.0019298884
0.0019221563
0.0019454862
0.0020465396
0.002713612
0.0033558111
0.0022889266
0.0019592387
0.0019429403
0.0019615829
0.0027857974
0.0072573531
0.0088964631
0.0048435702
0.0020198647
0.0019587946
0.0019641154
0.0051161341
0.01208554
0.014123249
0.009015064
0.0022718313
0.0019634232
0.0019811111
0.0078239767
0.015267276
0.017632848
0.012097688
0.0029875123
0.0019610791
0.0020494823
0.010002457
0.017590631
0.019910611
0.0142807
0.0042048146
0.0019783526
0.0022105469
0.011714542
0.019402542
0.021559928
0.01611669
0.0057038569
0.0020475901
0.0025319815
0.013277856
0.020900619
0.02285318
0.017740388
0.0072561183
0.0022124797
0.0030817772
0.014823275
0.022122357
0.023890381
0.019159485
0.0088265645
0.0025565018
0.0038755662
0.0162538
0.023111891
0.024721064
0.020359983
0.010360168
0.0031797211
0.0048883681
0.017508985
0.023901628
0.025373067
0.021357119
0.011800028
0.0041274579
0.0061446664
0.018584504
0.024526798
0.025878191
0.022176268
0.013121938
0.0053985613
0.0076140862
0.01952046
0.025036862
0.026278698
0.022868806
0.014341953
0.006932823
0.009219257
0.020450869
0.02555308
0.026644507
0.023591934
0.015531515
0.0086319338
0.0019972932
0.0019971099
0.0019971116
0.0019971124
0.0019971136
0.0019971123
0.0019971058
0.0019971252
0.0019973581
0.0019731715
0.0019703113
0.0019701651
0.0019701648
0.0019702029
0.0019701648
0.0019701401
0.0019703336
0.0019732506
0.0019515894
0.0019492237
0.0019490483
0.0019490863
0.0019491281
0.0019490483
0.001948963
0.0019491475
0.0019517713
0.0019330518
0.0019309693
0.0019308232
0.0019309769
0.0019310207
0.0019308717
0.001930676
0.0019309763
0.0019332885
0.0019176176
0.001916045
0.0019162532
0.0019168759
0.0019169382
0.0019165781
0.0019159312
0.0019163317
0.0019179544
0.0019065364
0.0019063246
0.0019079778
0.0019116458
0.0019123381
0.0019095817
0.0019069606
0.0019067976
0.0019068361
0.0019022453
0.0019063497
0.0019124088
0.0019255149
0.001933013
0.0019166373
0.0019096288
0.0019061869
0.0019021114
0.0019085941
0.0019251543
0.0019534544
0.0021533851
0.0022856185
0.0020009363
0.0019266263
0.0019207856
0.0019069877
0.0019272468
0.0019887909
0.0048443429
0.014162015
0.017337151
0.0097186709
0.0023506678
0.00195173
0.0019229154
0.0019525221
0.0032445595
0.017859805
0.034440043
0.038470562
0.027537515
0.0090959168
0.0020796177
0.001944852
0.0019734231
0.0085912608
0.030047538
0.046274645
0.049869186
0.039885097
0.019219797
0.0030441201
0.0019610601
0.0019937601
0.014288074
0.035990419
0.049701307
0.052613382
0.04443349
0.02597822
0.0058977786
0.001965337
0.0020861692
0.018249545
0.037966813
0.049671404
0.052157046
0.045193351
0.029254101
0.0089818384
0.0019641599
0.0023546696
0.020799726
0.038428754
0.048847452
0.051062667
0.044854469
0.030724408
0.011315013
0.0019948447
0.0028880157
0.022499185
0.038438606
0.047812466
0.049788795
0.044223339
0.031498446
0.013183112
0.0020948742
0.0037045665
0.023758631
0.03826524
0.046678395
0.048438086
0.043464846
0.031986018
0.01494162
0.0023219557
0.0047978804
0.024751652
0.037971028
0.045519004
0.047090488
0.042642705
0.032286317
0.016571885
0.0027818305
0.0060794814
0.025545842
0.037594621
0.044390175
0.045801082
0.041805026
0.032440818
0.018001595
0.0035067452
0.0074573435
0.026169845
0.037175887
0.043328915
0.044603546
0.040991291
0.03248742
0.019214122
0.0044833531
0.0088433036
0.026660618
0.036760255
0.042363866
0.043520512
0.040238765
0.032472212
0.020227631
0.0057109031
0.010197142
0.027092516
0.036413566
0.041516901
0.042562619
0.039588898
0.032475331
0.021094597
0.0071599189
0.011539313
0.027625122
0.03620316
0.040825728
0.04176623
0.039086947
0.032608669
0.021987973
0.0087795901
0.0019973516
0.0019971067
0.0019971088
0.0019971111
0.001997115
0.0019971159
0.0019971143
0.001997111
0.0019971027
0.001997129
0.0019973891
0.0019733503
0.0019702425
0.0019699512
0.0019699182
0.001970028
0.0019700877
0.001970035
0.0019699516
0.0019700165
0.0019703701
0.001973546
0.0019519717
0.0019491119
0.0019486841
0.0019486883
0.0019488742
0.001948954
0.0019488532
0.0019487204
0.0019487647
0.001949178
0.0019522006
0.0019336625
0.0019308272
0.0019303724
0.0019306262
0.0019310653
0.0019312466
0.0019309005
0.0019305919
0.0019304216
0.00193095
0.0019338424
0.0019185897
0.0019158768
0.0019159668
0.0019171994
0.001917868
0.0019185092
0.0019178084
0.0019168675
0.0019157172
0.0019161449
0.0019185475
0.0019075489
0.0019061352
0.001908643
0.0019181568
0.0018998914
0.0018962007
0.0019177759
0.0019125674
0.0019071864
0.001906364
0.0019072143
0.0019027194
0.0019061807
0.0019180701
0.0019874662
0.0025860634
0.0030083563
0.0021852754
0.0019215989
0.0019120334
0.001905135
0.001901907
0.0019075094
0.0019250629
0.0020443578
0.009237841
0.026222632
0.030775839
0.018537316
0.003498129
0.0019316205
0.0019181983
0.001905436
0.001923643
0.001988279
0.0095900825
0.040313781
0.064180248
0.069553502
0.054502089
0.024706427
0.002809906
0.0019486871
0.0019190326
0.0019456435
0.0032392569
0.02878812
0.063149792
0.08444815
0.089043101
0.076100758
0.047554301
0.012200018
0.0020279632
0.0019381804
0.001961583
0.0085845808
0.041315556
0.070063109
0.08611931
0.089469741
0.079951512
0.05763141
0.02386446
0.0025935719
0.0019531722
0.0019640707
0.014270448
0.045629924
0.068623333
0.081011351
0.083489206
0.07626935
0.058866092
0.030551497
0.0045368216
0.0019577477
0.0019805267
0.018199278
0.046219984
0.066100407
0.077300269
0.079666685
0.072940389
0.057593894
0.033287357
0.0071219681
0.0019575133
0.0020479607
0.020724191
0.04577591
0.063674272
0.073835075
0.075961726
0.069887698
0.055983612
0.034276185
0.0093531696
0.0019673571
0.0022065989
0.02240603
0.045037895
0.061094975
0.070033527
0.071871175
0.06659736
0.054230095
0.034699751
0.011119068
0.0020080157
0.0025220936
0.023654018
0.044183471
0.058492144
0.066299519
0.067885477
0.063325631
0.052417497
0.03488723
0.01270483
0.0021261261
0.0030602154
0.024641425
0.043279146
0.056032059
0.06289583
0.064281642
0.060297752
0.050650384
0.034917957
0.014289808
0.0023937247
0.0038365601
0.025433572
0.04237246
0.053799057
0.059899387
0.061128233
0.057599484
0.048999096
0.034833473
0.015777649
0.0029223749
0.0048244507
0.026057388
0.041504681
0.051820914
0.057302201
0.058405461
0.055241432
0.047502151
0.034672991
0.017091337
0.003815829
0.006047806
0.026549304
0.040718047
0.050100926
0.05506268
0.056060628
0.053201969
0.046186355
0.034483532
0.018221859
0.0051301996
0.0074808585
0.026983618
0.040053096
0.048611001
0.053126672
0.054035857
0.051436221
0.045051591
0.034339974
0.019203388
0.0067378694
0.009050314
0.02751662
0.039543985
0.047379559
0.051534925
0.052374668
0.0499799
0.044122289
0.03432704
0.020178952
0.0085253445
0.0019971587
0.0019971073
0.0019971083
0.0019971104
0.0019971098
0.0019971096
0.0019971094
0.0019971093
0.001997109
0.0019971031
0.0019972646
0.0019704052
0.0019699587
0.0019697871
0.0019697994
0.0019698443
0.0019698725
0.0019698365
0.0019698065
0.0019698505
0.0019700902
0.0019730589
0.0019491984
0.0019486868
0.0019484478
0.0019484997
0.0019486244
0.0019486663
0.0019485825
0.0019484904
0.0019485439
0.0019487975
0.0019515225
0.0019309603
0.0019303101
0.0019302823
0.0019308749
0.0019316358
0.0019318258
0.0019313953
0.0019305417
0.0019303017
0.0019303751
0.0019330588
0.0019160617
0.0019156303
0.0019167938
0.0019197565
0.0019275956
0.0019281729
0.001925715
0.0019171373
0.0019162547
0.0019153664
0.0019180103
0.0019060056
0.0019073435
0.0019177359
0.0019117982
0.002004214
0.0020618909
0.0019554883
0.0019062507
0.0019109875
0.0019057168
0.001907564
0.0019043494
0.0019118925
0.0019872493
0.0053518304
0.016978593
0.021080924
0.010955222
0.0025838254
0.0019056848
0.0019066089
0.0019042479
0.0019166029
0.0019533558
0.0092303808
0.043376328
0.071100287
0.077355875
0.059690067
0.025678609
0.0024615287
0.0019284683
0.0019125944
0.0019432959
0.0048337397
0.040291673
0.083609381
0.1111637
0.11706738
0.10016222
0.06369513
0.018600923
0.0020273606
0.0019349101
0.0020453736
0.017825704
0.063098459
0.10043186
0.12282642
0.12772344
0.11391246
0.083897922
0.040412774
0.0046569263
0.0019662655
0.0027729134
0.029947621
0.069921318
0.097204098
0.11325612
0.11722517
0.10667903
0.085523879
0.051567874
0.011465592
0.002008549
0.0050672097
0.035819901
0.068417319
0.089471785
0.099364147
0.10387937
0.096838585
0.08050456
0.053939753
0.017574172
0.0021771097
0.0077342591
0.037750515
0.065883511
0.085708491
0.099113442
0.10242968
0.093385004
0.076905409
0.053300723
0.021253456
0.0026551506
0.0098806761
0.038182934
0.063467532
0.081417668
0.092362476
0.09475634
0.087939446
0.073534844
0.052097736
0.023436649
0.0034780621
0.011558924
0.038173533
0.060902305
0.076522113
0.085290248
0.087095427
0.081874047
0.069805031
0.050734298
0.024861061
0.0044653267
0.013080299
0.037992514
0.058313049
0.071848688
0.07910801
0.080565683
0.076337983
0.066120545
0.049302003
0.025911996
0.0055777295
0.014589174
0.03769948
0.055865283
0.067712989
0.073930077
0.075168644
0.071584841
0.062751819
0.047877448
0.026726893
0.0067924975
0.01599378
0.037329151
0.053643398
0.064154219
0.069621189
0.070709297
0.067572378
0.059781637
0.046518896
0.027355072
0.0080905272
0.017232637
0.036918974
0.05167535
0.061118294
0.066012605
0.066988157
0.064186138
0.057207384
0.045265415
0.02782498
0.0094227271
0.018299636
0.036513241
0.049964841
0.058522641
0.062958351
0.06384529
0.061307143
0.054990384
0.044149224
0.02817491
0.010746867
0.019230824
0.036176903
0.048483287
0.056296827
0.060362149
0.061178433
0.058850849
0.053076978
0.043188144
0.028479428
0.012054315
0.020158972
0.035975787
0.047258472
0.054486631
0.058284153
0.059051393
0.056872397
0.051505687
0.042409178
0.028900536
0.013353558
0.0019974607
0.0019971202
0.0019971062
0.0019971066
0.0019971058
0.0019971031
0.0019971015
0.0019971026
0.0019971053
0.0019971063
0.0019971056
0.0019971664
0.0019735483
0.0019702625
0.0019698721
0.0019697245
0.0019697185
0.0019697585
0.00196976
0.0019697096
0.0019696987
0.0019697498
0.0019699192
0.0019728825
0.0019520912
0.0019490986
0.0019485822
0.0019483455
0.0019483743
0.0019484997
0.0019485304
0.001948403
0.0019483385
0.001948401
0.0019486391
0.0019512249
0.0019337219
0.0019308326
0.0019302865
0.0019303292
0.0019312634
0.0019309824
0.0019310317
0.0019314433
0.0019307765
0.0019302433
0.0019302833
0.0019327253
0.0019185317
0.0019159447
0.00191608
0.0019169926
0.0019271602
0.0019244594
0.001906472
0.0019289891
0.0019205804
0.0019166723
0.0019155163
0.0019176174
0.0019073935
0.0019061749
0.0019107975
0.0018979461
0.002003981
0.0027598842
0.0032689562
0.0022742593
0.0019127835
0.0019160517
0.0019068047
0.0019073151
0.0019023707
0.0019062681
0.0019246842
0.0025821851
0.016952224
0.039456774
0.04513631
0.029533035
0.0071203308
0.0019845626
0.0019106524
0.0019048325
0.001906838
0.0019246141
0.0021520748
0.026154035
0.071037018
0.10266758
0.10956952
0.089806402
0.049304586
0.0086092235
0.0019402534
0.0019154172
0.0019225281
0.0019664682
0.014086891
0.064065711
0.11105897
0.13988364
0.14577884
0.12841115
0.089744927
0.037713705
0.0030197303
0.0019424545
0.0019438373
0.0027003302
0.034254179
0.084214963
0.12259549
0.1453649
0.14930574
0.13651135
0.10539113
0.060526331
0.012748782
0.0019932524
0.0019600782
0.0071503996
0.045937329
0.085558757
0.11011935
0.13150928
0.13705761
0.12739631
0.10041437
0.067853422
0.023747783
0.0023359661
0.0019650356
0.011896022
0.049251398
0.080356507
0.098590405
0.1150162
0.1296284
0.1140596
0.091922852
0.066727616
0.029876962
0.0036346212
0.0019655938
0.014999039
0.049174969
0.076724497
0.098670653
0.11858534
0.12377549
0.10937304
0.088189097
0.064341744
0.032505794
0.0055335393
0.0019803345
0.017252245
0.048339095
0.073342997
0.092057905
0.10461622
0.10745982
0.099372564
0.083602134
0.062054027
0.033539659
0.0074941224
0.0020509263
0.019011273
0.047313659
0.069603821
0.085048725
0.093903781
0.095742
0.090414942
0.078356978
0.059654607
0.033996227
0.0092833822
0.0022266616
0.020479095
0.046200664
0.065917163
0.078902973
0.085834075
0.087222289
0.083185853
0.073414795
0.057230308
0.034215374
0.010955328
0.0026113828
0.021686711
0.045066565
0.062550709
0.073749718
0.079561013
0.080713975
0.077374198
0.06908243
0.054925197
0.034285159
0.012500321
0.003337978
0.022673519
0.043963593
0.059584618
0.069459392
0.074537451
0.075545645
0.072641647
0.065375876
0.052820507
0.034241432
0.013904363
0.0044599234
0.023468574
0.042927384
0.057013033
0.065865782
0.070412223
0.071318688
0.068722051
0.062222654
0.050944398
0.034114996
0.015160903
0.0059067961
0.02410405
0.04198612
0.05479564
0.062824039
0.066959805
0.067788291
0.065426073
0.059528912
0.049301021
0.033941551
0.016276122
0.0075682419
0.024625939
0.041161118
0.052878572
0.060238271
0.064052123
0.064820091
0.062639666
0.057220831
0.047867642
0.033773438
0.017275782
0.0093297547
0.025151814
0.04048824
0.051301357
0.058167834
0.061764812
0.062493968
0.060432726
0.055349409
0.04667738
0.033695021
0.018211355
0.0019974163
0.0019971122
0.0019971049
0.0019971046
0.0019971009
0.0019970985
0.0019970965
0.0019970984
0.0019971024
0.0019971034
0.0019971048
0.0019971342
0.0019734068
0.0019702682
0.0019698717
0.0019697207
0.0019696969
0.0019697728
0.00196976
0.0019696911
0.0019696818
0.0019697159
0.0019698449
0.0019703342
0.0019520254
0.0019491577
0.0019485854
0.0019483343
0.0019483423
0.0019485315
0.0019485452
0.001948352
0.0019483166
0.0019483574
0.0019484963
0.0019489779
0.0019337042
0.0019308852
0.0019303066
0.0019304071
0.0019313561
0.0019309898
0.0019313135
0.0019314883
0.0019309978
0.0019302367
0.0019301128
0.0019306448
0.0019184998
0.0019158926
0.0019161197
0.0019175315
0.0019275832
0.0019065623
0.0018942724
0.001924365
0.0019221009
0.0019168116
0.0019154181
0.0019156315
0.001907405
0.0019059871
0.0019115783
0.0018953249
0.0020607971
0.0032675386
0.0040750493
0.0024909681
0.0019350998
0.0019160255
0.0019072768
0.0019054006
0.0019029601
0.0019058298
0.0019323459
0.0029951732
0.021018784
0.045103985
0.051009491
0.034555404
0.0092198866
0.0020033751
0.0019114354
0.0019032851
0.0019083286
0.0019280305
0.0022798827
0.030603161
0.077198437
0.10948486
0.11645544
0.096364758
0.054835128
0.010790614
0.0019436255
0.0019144703
0.0019257819
0.0019829151
0.017119685
0.069223197
0.11673921
0.1455459
0.15128689
0.13415744
0.095299508
0.042290925
0.0039570466
0.0019434911
0.0019494932
0.0032828249
0.038048819
0.088497269
0.12701862
0.14866456
0.15136847
0.14074209
0.10979932
0.064825694
0.01543716
0.0019951575
0.0019670342
0.0086674021
0.049262087
0.088540736
0.11488568
0.13581256
0.13677642
0.1331275
0.10323766
0.071107886
0.026829515
0.0023926269
0.0019747324
0.013729746
0.051909266
0.082521285
0.10227692
0.12845756
0.13506627
0.12673799
0.097311458
0.069175226
0.032708658
0.00368414
0.0019860662
0.017154926
0.051426013
0.078847696
0.10173134
0.12347984
0.12837645
0.11345716
0.090492159
0.066486898
0.034966017
0.0056308485
0.0020544226
0.019378029
0.05034482
0.075267575
0.094238191
0.10720969
0.11010184
0.10174488
0.085570311
0.064001086
0.035694644
0.0075110823
0.002228198
0.02099587
0.049103974
0.071262108
0.086662197
0.095528029
0.09736489
0.092017599
0.079964783
0.061383207
0.035911351
0.0090967634
0.0025647927
0.022275519
0.047793988
0.067341163
0.08018791
0.087035413
0.088405801
0.084414916
0.074756223
0.0587496
0.035935692
0.010504186
0.0031415144
0.023311683
0.046488896
0.063789822
0.074832361
0.08054794
0.081681703
0.078397262
0.070234263
0.056264998
0.035838541
0.011926058
0.0040094043
0.024150276
0.045240546
0.060680231
0.070406095
0.075396261
0.076387765
0.073534375
0.066389315
0.054012232
0.035647117
0.01330826
0.005160174
0.024816585
0.044081123
0.057994785
0.066712303
0.071183044
0.072075667
0.069522218
0.06312935
0.052014276
0.03539037
0.014591746
0.0065352968
0.025339896
0.043032916
0.05568221
0.063592542
0.067664235
0.068481272
0.066155412
0.060349325
0.050266695
0.035102045
0.015755121
0.0080600948
0.025759168
0.042106256
0.053685025
0.060945073
0.064705722
0.065464237
0.063313878
0.057970863
0.048740546
0.03482221
0.016819633
0.0096745228
0.026141655
0.041335451
0.05204489
0.058832053
0.062386378
0.063107969
0.061070721
0.056047818
0.04747132
0.034615287
0.017709231
0.0019971252
0.0019971027
0.001997103
0.0019971021
0.0019970962
0.0019970944
0.0019970965
0.0019971005
0.001997103
0.0019971042
0.001997178
0.0019703726
0.0019699084
0.0019697895
0.0019698205
0.0019698187
0.001969797
0.0019697425
0.0019697335
0.0019697774
0.0019699337
0.0019729107
0.001949223
0.0019486613
0.0019484729
0.0019485497
0.0019486278
0.001948588
0.0019484997
0.0019484332
0.0019484537
0.0019484536
0.0019511121
0.0019309987
0.0019303893
0.0019304155
0.0019313348
0.0019317381
0.0019318157
0.0019315869
0.0019307493
0.0019302861
0.0019299107
0.0019324784
0.0019161198
0.0019160453
0.0019172861
0.0019255555
0.0019292939
0.0019246565
0.0019290582
0.0019192005
0.0019166054
0.0019149842
0.001917012
0.0019062186
0.0019090712
0.0019173791
0.0019554793
0.00227467
0.002491791
0.0020587231
0.0019055653
0.0019144501
0.0019059202
0.0019062478
0.0019054795
0.0019166498
0.0021815
0.010912855
0.029499874
0.034537367
0.021089719
0.0044016533
0.0019367611
0.0019087735
0.0019031039
0.001919474
0.0020000459
0.018362298
0.059505384
0.089693648
0.096305872
0.077319918
0.039238057
0.0053280173
0.0019292045
0.0019125403
0.0019453659
0.0095409632
0.054116344
0.099804988
0.12814731
0.1340133
0.11672231
0.079031954
0.029452291
0.0022840442
0.0019372583
0.0022722589
0.027067587
0.075515776
0.1132638
0.13593877
0.1404095
0.12673503
0.096477105
0.052269713
0.0089151564
0.0019770488
0.0046590349
0.039224213
0.079136083
0.10559233
0.12629769
0.13263906
0.12190648
0.094079558
0.061259125
0.018363025
0.0021583367
0.0086702703
0.043685536
0.075385488
0.095745597
0.11315577
0.12640778
0.11056621
0.086841324
0.061517338
0.024693999
0.0029385276
0.011675753
0.044406648
0.072107371
0.09264506
0.10890407
0.11326847
0.10143716
0.083113633
0.059766352
0.027850772
0.0043983214
0.013785471
0.044068547
0.069125952
0.087315226
0.098956229
0.10156149
0.094108206
0.079165716
0.057889229
0.029381436
0.0061757108
0.015557494
0.043463419
0.065900415
0.081322425
0.090046461
0.091848262
0.08660702
0.074646173
0.055916488
0.030225176
0.0078947255
0.017139555
0.042742939
0.062687372
0.075842487
0.08285691
0.084260979
0.080171212
0.070273248
0.053907478
0.030778042
0.0095323117
0.01854358
0.04196317
0.059712395
0.071135793
0.077077475
0.078257225
0.074836663
0.066363406
0.051968994
0.031151433
0.011092622
0.019743351
0.041167813
0.057061026
0.067162499
0.07237161
0.073406313
0.070423293
0.062974337
0.050173024
0.031380882
0.012543417
0.02074981
0.040394306
0.054744225
0.063809669
0.068474498
0.069404416
0.066738052
0.060069226
0.048553923
0.031497256
0.013862206
0.021584241
0.039679165
0.052740963
0.060959474
0.065197775
0.066046463
0.063624473
0.057578326
0.047129392
0.031538505
0.015049249
0.022293999
0.03906329
0.051006689
0.058527944
0.062427589
0.063212381
0.060981992
0.055436969
0.045891782
0.031570913
0.016126572
0.023032111
0.038590032
0.049574951
0.05656754
0.060232008
0.060974452
0.058873528
0.053690142
0.044868973
0.03171229
0.017153721
0.0019972052
0.0019970996
0.001997103
0.001997102
0.0019971019
0.0019971014
0.0019971022
0.0019971015
0.0019971026
0.0019971052
0.0019973253
0.0019730486
0.0019700706
0.0019699164
0.0019699404
0.0019700289
0.0019700519
0.0019700038
0.0019699003
0.0019698919
0.0019701015
0.0019730596
0.0019515048
0.0019488563
0.0019486991
0.0019487694
0.0019489327
0.0019489718
0.0019488856
0.0019487174
0.0019486516
0.0019487832
0.0019514932
0.0019330475
0.0019305268
0.0019305829
0.0019309454
0.0019315706
0.0019318538
0.0019313193
0.0019307893
0.0019304479
0.001930472
0.0019329728
0.0019176914
0.0019157214
0.0019168594
0.0019176272
0.0019214802
0.0019230192
0.0019198059
0.0019175053
0.0019161343
0.0019156601
0.0019176341
0.0019065671
0.0019067487
0.0019126236
0.0019068598
0.0019137624
0.0019362312
0.0019059387
0.0019170646
0.0019087648
0.0019062079
0.0019068608
0.0019022983
0.0019096526
0.0019219373
0.0025809825
0.0071119929
0.0092094505
0.0043963126
0.0020301638
0.0019172814
0.0019062981
0.0019028537
0.0019090448
0.0019279171
0.0034712351
0.025561103
0.049215931
0.054743211
0.039177446
0.011922097
0.0019864456
0.0019233456
0.0019094662
0.0019299114
0.002337826
0.024445098
0.063444517
0.08957251
0.095098349
0.078903446
0.0448817
0.0085393153
0.0019577828
0.0019289333
0.0019591403
0.0088945056
0.0471086
0.083493066
0.10506049
0.10947357
0.096293115
0.06718875
0.02620969
0.0024474274
0.0019553945
0.002016634
0.018759964
0.057050052
0.084921756
0.099836394
0.10283074
0.093894896
0.072875826
0.038711302
0.005809803
0.0019773604
0.0022459407
0.025375082
0.058201407
0.079821496
0.091284454
0.096864848
0.086676875
0.070590277
0.043348077
0.010464486
0.0020011917
0.00289407
0.028596206
0.056897494
0.076253122
0.087655757
0.090165175
0.082966229
0.067788661
0.044175658
0.013694695
0.0020948303
0.0040136154
0.030044149
0.055289468
0.07292414
0.083123681
0.085273528
0.079029973
0.06521284
0.043908263
0.016006032
0.002357999
0.0054247071
0.030809893
0.053557961
0.069233318
0.077918473
0.079688384
0.074518503
0.062466793
0.043339455
0.017899782
0.0029057064
0.0068980469
0.031305323
0.051777009
0.065586363
0.073010632
0.074499189
0.07015356
0.059700173
0.042647191
0.01949749
0.0037127376
0.0083991937
0.031625979
0.05004546
0.062253254
0.06870844
0.069995551
0.066251947
0.057098643
0.041892873
0.020819894
0.0047641192
0.0098811059
0.031806692
0.048429968
0.059315995
0.065028431
0.06616724
0.062870616
0.054749729
0.041120116
0.021908525
0.0059835542
0.011287428
0.031881581
0.046966892
0.05677154
0.06189858
0.06292209
0.059972462
0.052678443
0.040367928
0.022797252
0.0073082244
0.012587554
0.0318947
0.045682179
0.05458134
0.059225537
0.06015522
0.057487703
0.050882143
0.039677703
0.023520771
0.0086924617
0.013789998
0.031925152
0.044575806
0.052692048
0.056935472
0.057788174
0.055351539
0.049326788
0.039096637
0.024144188
0.010112535
0.014960611
0.03208268
0.043669827
0.051139047
0.055077059
0.055873405
0.053608638
0.048041403
0.038663631
0.02486023
0.011553736
0.0019974284
0.0019971254
0.0019971001
0.001997105
0.0019971029
0.0019971032
0.001997105
0.0019971042
0.0019971024
0.0019971619
0.0019734343
0.0019703699
0.0019701431
0.0019701135
0.001970134
0.001970187
0.0019702049
0.0019700895
0.001970025
0.0019728238
0.0019520198
0.0019492111
0.0019490107
0.0019490316
0.0019491086
0.0019492005
0.0019492082
0.0019490034
0.0019488194
0.001951252
0.0019336866
0.0019310208
0.0019307753
0.0019309912
0.0019312301
0.0019313731
0.0019312865
0.0019309104
0.0019305674
0.0019327763
0.0019185284
0.0019162435
0.0019161316
0.0019170962
0.0019178543
0.0019181141
0.0019177077
0.0019166041
0.0019157549
0.0019172301
0.0019074319
0.00190653
0.0019076576
0.0019119398
0.0019170973
0.001917429
0.001915496
0.0019091515
0.0019062651
0.0019059439
0.001902609
0.0019058882
0.0019126631
0.0019066678
0.0019861107
0.0020046542
0.0019370922
0.0019177553
0.0019070862
0.0019014975
0.0019070896
0.0019208924
0.0019328803
0.0024616237
0.0085950473
0.010752156
0.0053026567
0.0019868678
0.0019277371
0.0019087881
0.0019222225
0.0019524119
0.0027833628
0.018494292
0.037613432
0.042119289
0.029297965
0.0085054168
0.0020139047
0.001931414
0.0019430982
0.0020750549
0.012012409
0.040191698
0.060336002
0.064566872
0.052028116
0.026101358
0.0037832559
0.0019689927
0.0019587433
0.0029851485
0.023527522
0.051246464
0.067553633
0.070796665
0.060996113
0.038575025
0.009973595
0.0020978855
0.0019629623
0.0056989969
0.03012248
0.053538005
0.066350839
0.068842429
0.061261005
0.043214181
0.0161649
0.0026088993
0.001960657
0.0086985019
0.032805613
0.052855626
0.063937671
0.066152375
0.059518867
0.044041784
0.020132527
0.0038113079
0.0019743496
0.010976688
0.033763505
0.051631393
0.061643397
0.063672692
0.057651214
0.04378156
0.022475007
0.0056298107
0.0020345369
0.012781433
0.034171212
0.050259801
0.059247261
0.061064426
0.055690741
0.043221164
0.023981448
0.0075979719
0.0021814078
0.014476132
0.034354389
0.048828989
0.056833033
0.058443546
0.05369577
0.042537466
0.02507427
0.0093943799
0.0024825971
0.01606855
0.034389366
0.047413306
0.054541902
0.055973483
0.051771444
0.041792041
0.025940492
0.011048672
0.003034288
0.017480524
0.034315073
0.046068103
0.052452708
0.053735503
0.049988583
0.041027658
0.026629965
0.012603896
0.0038887871
0.018688309
0.0341683
0.044829929
0.050592164
0.051751572
0.048381114
0.040282689
0.027163068
0.014025028
0.0050492053
0.019705667
0.033994273
0.043729532
0.048963807
0.050016923
0.0469668
0.039598657
0.027574456
0.015282983
0.0064749543
0.020580654
0.033866973
0.04278429
0.04754448
0.048502485
0.045737982
0.039022582
0.027942236
0.016389427
0.0080800874
0.021480834
0.033868771
0.042018481
0.046365183
0.047242341
0.044722113
0.038593378
0.028407445
0.017429569
0.0019973566
0.0019971306
0.0019971056
0.0019971069
0.0019971074
0.0019971087
0.0019971096
0.0019971605
0.0019973354
0.0019732113
0.0019704697
0.0019703312
0.001970326
0.001970367
0.0019704082
0.0019704152
0.0019729913
0.0019734128
0.0019516947
0.0019493686
0.0019492467
0.0019493413
0.0019494049
0.0019493725
0.0019493657
0.0019515002
0.0019519583
0.0019332439
0.0019312595
0.001931031
0.0019312464
0.0019313201
0.0019311749
0.0019312643
0.0019330166
0.001933505
0.0019179883
0.0019165273
0.0019162089
0.001916689
0.0019167785
0.0019164129
0.0019165717
0.001917595
0.0019180888
0.0019068639
0.0019067766
0.0019066872
0.0019081016
0.0019086362
0.0019072683
0.0019070904
0.0019065346
0.0019067706
0.0019020847
0.0019056915
0.001907654
0.0019119753
0.00191281
0.0019099275
0.0019071394
0.001902131
0.0019013746
0.0019069532
0.0019191363
0.0019296373
0.001941081
0.0019457843
0.0019306541
0.0019241356
0.0019092874
0.0019046846
0.0019229191
0.0019497665
0.0020283127
0.0030099135
0.0039238666
0.002276501
0.0019580293
0.0019317372
0.0019177864
0.0019447536
0.0020280635
0.0046275426
0.012691224
0.015299163
0.0088072857
0.0024361197
0.0019686943
0.0019364778
0.0019607559
0.0025780358
0.011379394
0.02361171
0.026609952
0.018146945
0.0057338993
0.0020951983
0.0019513855
0.0019647242
0.0044560381
0.017414926
0.02967944
0.032445298
0.024428098
0.010338317
0.002597129
0.0019565146
0.0019626111
0.0069767415
0.021030036
0.032260843
0.034684388
0.027580796
0.013548716
0.0037819324
0.0019588965
0.0019907448
0.00916903
0.023166976
0.033264303
0.035403325
0.029115338
0.015840029
0.0055820433
0.0019728799
0.0020823957
0.010894623
0.024557045
0.033698559
0.035614707
0.029963953
0.017725784
0.007541045
0.002034414
0.0022872656
0.012431612
0.025584183
0.033902706
0.035638366
0.030523762
0.019323905
0.0093314734
0.0021784726
0.0027047045
0.013969125
0.026382948
0.033964453
0.035545314
0.030906761
0.020653031
0.010980661
0.0024732373
0.0033743107
0.015423699
0.027001069
0.033918172
0.0353609
0.031147037
0.021749849
0.012532988
0.0029902759
0.0042820016
0.016715642
0.027465675
0.033793037
0.03511242
0.03127441
0.022646558
0.013954301
0.0037912429
0.005429479
0.017833508
0.027813997
0.033623476
0.034832637
0.031326125
0.023377244
0.015214275
0.0049041554
0.0067922343
0.018807523
0.028118998
0.033460513
0.034560931
0.031367828
0.024007211
0.016323535
0.0063121822
0.0083297191
0.019776469
0.028540205
0.033386584
0.034360423
0.031516536
0.02472858
0.017365361
0.0079579161
0.0019973942
0.0019972637
0.0019971655
0.0019971383
0.0019971776
0.0019973257
0.0019735384
0.0019732033
0.0019731981
0.001970682
0.0019733345
0.0019732969
0.0019521641
0.0019517401
0.0019518065
0.0019496613
0.0019520086
0.001951945
0.0019338115
0.0019333983
0.0019334679
0.0019315754
0.0019337226
0.0019336296
0.0019185798
0.0019184652
0.0019185094
0.0019167273
0.0019185997
0.0019185313
0.0019073068
0.0019081467
0.0019083187
0.0019065291
0.0019079061
0.0019079635
0.0019020534
0.0019050945
0.0019059884
0.0019045928
0.0019045955
0.0019040276
0.0019057058
0.0019135407
0.0019166172