/*--------------------------------*- C++ -*----------------------------------*\
| =========                 |                                                 |
| \\      /  F ield         | OpenFOAM: The Open Source CFD Toolbox           |
|  \\    /   O peration     | Version:  2406                                  |
|   \\  /    A nd           | Website:  www.openfoam.com                      |
|    \\/     M anipulation  |                                                 |
\*---------------------------------------------------------------------------*/
FoamFile
{
    version     2.0;
    format      ascii;
    arch        "LSB;label=32;scalar=64";
    class       volScalarField;
    location    "50";
    object      omega;
}
// * * * * * * * * * * * * * * * * * * * * * * * * * * * * * * * * * * * * * //

dimensions      [0 0 -1 0 0 0 0];

internalField   nonuniform List<scalar> 
71615
(
9.8512345
9.8563814
8.6194936
8.6180002
7.6320716
7.6300119
6.854636
6.8526291
6.2310268
6.228966
5.7271051
5.7254842
5.3220514
5.3211906
5.003135
5.0042503
4.75714
4.7612347
4.5609996
4.5687076
4.3852876
4.3944936
4.2130027
4.220173
4.0459589
4.0516781
3.891154
3.9019306
3.756763
3.7729545
3.6582617
3.7048639
3.61924
3.7052955
3.6797097
3.7724936
3.8285672
3.8844816
3.9836176
3.9993601
4.0736778
4.0762716
4.0875667
4.0937692
9.8530205
9.8429461
9.8406115
9.8402138
9.8408576
9.8448711
9.8566624
8.6161888
8.4792507
8.4745846
8.4729039
8.4760928
8.6124433
8.6166563
7.6294707
7.524354
7.5222263
7.5207939
7.5225642
7.6279521
7.6297878
6.8519242
6.7661594
6.7643083
6.7626799
6.7644692
6.8504458
6.8529463
6.2283117
6.156385
6.1540168
6.1518681
6.154554
6.2264592
6.22989
5.7247374
5.6638379
5.6610337
5.658144
5.6619114
5.7222316
5.7265888
5.320366
5.2713627
5.2694442
5.2660008
5.2699257
5.317474
5.3223143
5.0025037
4.9715161
4.9737609
4.9699726
4.9745996
5.0010946
5.0037105
4.7579934
4.75112
4.7346625
4.7395061
4.7669478
4.7628427
4.7569596
4.563422
4.5724136
4.8395803
4.981806
4.677556
4.5773185
4.5597158
4.3876148
4.6055093
5.4874744
5.9201966
5.0309059
4.4186264
4.3831062
4.2129674
4.8308155
6.3194324
6.8384159
5.6103995
4.288767
4.2094551
4.0454848
5.1545275
6.8114953
7.140861
6.162513
4.2874138
4.0409289
3.8902273
5.5389141
6.8902361
7.0906443
6.4397858
4.5275907
3.8851513
3.7769455
5.8114243
6.7730044
6.8942793
6.4638618
4.8810576
3.7438444
3.7263869
5.9154145
6.5628875
6.6352288
6.3523911
5.158764
3.6435551
3.7654041
5.8683434
6.2922262
6.3395287
6.1555444
5.2946174
3.6122997
3.9083684
5.7185202
5.9902796
6.0226228
5.9025708
5.301982
3.6690919
4.0922907
5.5048586
5.6782675
5.700075
5.6227116
5.2119056
3.8076763
4.2094568
5.2609981
5.3707153
5.3845457
5.3362687
5.0557523
3.9663297
4.2390184
5.0070276
5.0763594
5.0836446
5.0557471
4.8611885
4.0794844
4.2046364
4.7627787
4.8023933
4.803666
4.792502
4.6529647
4.12077
9.8498611
9.8401184
9.8396117
9.8395937
9.8396014
9.8395962
9.8396358
9.8408313
9.8534904
8.6136664
8.4713416
8.4668384
8.4650392
8.4648146
8.4656995
8.4687076
8.4777349
8.6149419
7.6276418
7.5199793
7.516381
7.5138612
7.5133216
7.5148424
7.518138
7.5235179
7.6282884
6.8500304
6.7621827
6.7580289
6.7548802
6.754029
6.7561411
6.7599943
6.7654267
6.8507806
6.2261492
6.1516382
6.1453925
6.1406362
6.1392884
6.1425762
6.1484084
6.1561155
6.2272781
5.7226149
5.6583386
5.6509032
5.6447103
5.643353
5.6472231
5.6545472
5.6645113
5.7238388
5.3191243
5.2672623
5.2676654
5.2718632
5.2715509
5.2754657
5.2657685
5.2740316
5.3196408
5.0038736
4.9765136
4.9510871
5.1120893
5.2178818
4.9796913
4.9915202
4.977172
5.001858
4.7633622
4.7472361
5.5150544
7.6255468
8.1080056
6.6422773
4.9280197
4.7655914
4.7571289
4.5737564
4.955801
8.0840478
9.7131805
9.9619233
9.1679069
6.3873129
4.6005667
4.5624395
4.4006676
6.1693191
9.0309178
9.8087713
9.9498466
9.5329966
8.1045946
4.6916207
4.3869106
4.2287798
7.2646708
8.8452652
9.3476059
9.44627
9.155617
8.3704057
5.0943853
4.212044
4.067782
7.4853606
8.4500957
8.8323976
8.9054052
8.6835928
8.1067223
5.6261907
4.0420651
3.9700032
7.3022455
8.0405401
8.326395
8.379283
8.2146124
7.7669454
6.0831935
3.8877291
4.0123774
7.0371503
7.606317
7.8030047
7.8365541
7.7268531
7.4027022
6.2769321
3.7548155
4.2551753
6.7462302
7.1495247
7.2689485
7.2859663
7.2240339
7.010586
6.2519576
3.6960398
4.5586753
6.4288573
6.6891915
6.7480968
6.752898
6.727277
6.6034988
6.1009447
3.7345143
4.7766048
6.0930715
6.2446478
6.2601054
6.2567563
6.2563003
6.1989564
5.8754804
3.900219
4.8517454
5.7540591
5.8288516
5.8149808
5.806584
5.8224498
5.8114165
5.6121078
4.1148097
4.8088053
5.4252357
5.4477919
5.415099
5.4037983
5.4296308
5.4495866
5.3363077
4.2587471
4.6915265
5.1150883
5.102508
5.0583009
5.0455065
5.076991
5.1172131
5.0632769
4.3000715
4.5348516
4.8287265
4.7910955
4.7405375
4.7272785
4.7612605
4.8146936
4.8052681
4.2638917
9.853023
9.8401057
9.8395703
9.839563
9.8395674
9.8395679
9.8395672
9.8395701
9.8395751
9.8410972
9.8509589
8.616198
8.4711636
8.4647893
8.4621059
8.461262
8.4612008
8.4617104
8.4632353
8.4673219
8.4787895
8.6178779
7.6298479
7.5198119
7.5137097
7.5087822
7.5061275
7.505613
7.507288
7.5110849
7.51673
7.5234868
7.6316234
6.8528253
6.7620757
6.7549634
6.7476531
6.7423992
6.7411864
6.7446364
6.7513913
6.7585166
6.765179
6.8544787
6.2298394
6.151603
6.1413677
6.1306676
6.1221645
6.1195331
6.1260272
6.1360512
6.1466201
6.1557754
6.231162
5.7263601
5.6583802
5.6471507
5.6352566
5.6398045
5.6339054
5.6322791
5.6406922
5.6529682
5.6641537
5.7273372
5.3217465
5.2674591
5.2663749
5.2276199
5.3456091
5.4492837
5.2623201
5.2672706
5.2654733
5.2731018
5.3220469
5.0036165
4.9769242
5.0077096
7.0511864
9.5485741
10.010523
8.6128545
5.4766506
5.0002661
4.9736701
5.0016398
4.7589674
4.7477793
6.9946127
10.544029
11.751647
11.982527
11.308013
9.3011208
5.0875809
4.7569221
4.7523684
4.5642076
4.9570007
9.4371706
11.128172
12.03161
12.240132
11.660891
10.459063
7.2912807
4.577981
4.552361
4.3881498
6.1711917
9.6350433
10.752924
11.505224
11.690531
11.179758
10.252931
8.6722621
4.5561019
4.3745758
4.2134093
7.2659255
9.2306993
10.038392
10.600499
10.73044
10.348439
9.6678052
8.6387994
4.7466798
4.2019085
4.0457416
7.4880725
8.7449194
9.3616515
9.7796093
9.877723
9.5899565
9.075532
8.297898
5.0644091
4.0352951
3.8904601
7.3066669
8.2689886
8.7033811
8.9507706
9.0006131
8.8392951
8.5069262
7.9238148
5.4689509
3.8807259
3.7764042
7.0423619
7.7747487
8.0296084
8.129945
8.1437676
8.0841589
7.9216069
7.5204784
5.7834293
3.7411627
3.7239721
6.7508543
7.2624167
7.3745884
7.378002
7.3707482
7.3742804
7.333991
7.0935187
5.9165445
3.625211
3.7589735
6.432679
6.7559872
6.7691675
6.7167196
6.6985647
6.7367279
6.7729997
6.6585631
5.8824238
3.5504565
3.8961348
6.0963289
6.276762
6.2266285
6.1448426
6.1216969
6.1770939
6.2574559
6.2327856
5.7367412
3.563402
4.0775456
5.7569895
5.8364697
5.7481213
5.6526598
5.6277557
5.6904993
5.7943753
5.8297423
5.5231936
3.6810812
4.1963998
5.4279807
5.4387515
5.3286897
5.2284648
5.203511
5.268162
5.3831134
5.4569331
5.2782706
3.8620922
4.2287553
5.1177261
5.082274
4.9609411
4.8610484
4.836947
4.9004931
5.0190569
5.1168685
5.024432
4.0093587
4.1969101
4.8313295
4.7634789
4.6387301
4.5429777
4.5204084
4.5806319
4.6971274
4.8087166
4.7790873
4.0660272
9.8429412
9.8395973
9.8395545
9.8395444
9.8395318
9.8395287
9.8395328
9.8395458
9.8395686
9.8396884
9.8482466
8.479005
8.4663028
8.4617637
8.4597895
8.4588698
8.4587297
8.4592541
8.4606556
8.4635525
8.4694853
8.6138579
7.5239716
7.515707
7.5083169
7.502813
7.4994496
7.4987538
7.5008235
7.5053764
7.5118075
7.5176881
7.6283305
6.7657276
6.7573207
6.7471502
6.7365573
6.7294953
6.7278386
6.7323067
6.7416768
6.7525522
6.7594408
6.85096
6.1560643
6.1448039
6.1302613
6.1125662
6.0989554
6.0986489
6.1032049
6.1219186
6.1379748
6.148484
6.2276773
5.663755
5.6506719
5.6351397
5.6168522
5.5631503
5.5662134
5.545821
5.6390464
5.6422131
5.6550532
5.72481
5.2717701
5.2679344
5.227933
5.9365915
8.4017382
8.9301077
7.3230081
5.3416457
5.273221
5.2651265
5.3223076
4.972357
4.9520058
7.0507686
11.059568
12.590416
12.862055
12.028649
9.511096
5.2264827
4.9755777
5.0098666
4.7520544
5.5162323
10.553656
12.603626
13.816676
14.087685
13.310601
11.735864
8.4606485
4.7665589
4.775427
4.5734242
8.0882944
11.144645
12.856823
14.26333
14.611675
13.641433
12.017914
10.114379
5.2507779
4.5890079
4.60488
9.0419673
10.769652
12.281906
13.914442
14.384133
13.128676
11.486796
10.031144
6.6790181
4.4234639
4.8272267
8.8576215
10.051605
11.206432
12.300116
12.896572
11.985927
10.57914
9.5094368
7.5393836
4.2692252
5.1442742
8.4601259
9.3712706
10.210649
11.101758
11.349602
10.660646
9.760711
8.955437
7.6144717
4.1788824
5.5231087
8.0487606
8.7109569
9.1736356
9.537999
9.6226116
9.3623454
8.9391449
8.4210193
7.3963055
4.2037598
5.7952912
7.6142096
8.0362575
8.204802
8.2822534
8.293263
8.2402387
8.1253821
7.8695605
7.1093964
4.3973555
5.9028379
7.1572811
7.3807364
7.3677165
7.3061328
7.2853565
7.3263999
7.3778813
7.3096188
6.795946
4.6546136
5.8596113
6.6966645
6.7748943
6.6619996
6.5385371
6.5051635
6.5859233
6.7187796
6.7684751
6.4585205
4.8665342
5.7136
6.2517811
6.2319348
6.0688962
5.9219407
5.8847533
5.9795112
6.147695
6.2661491
6.1078452
4.9723075
5.5029775
5.8356499
5.7530174
5.5681088
5.4163395
5.3792826
5.4760436
5.6555622
5.8114291
5.7589557
4.9633939
5.2614583
5.4542734
5.3332016
5.1419746
4.9942208
4.9589834
5.0523109
5.2310287
5.4052125
5.4239017
4.8648864
5.0095265
5.1086876
4.9650895
4.7761579
4.6363851
4.6036155
4.6912139
4.863081
5.0440577
5.1096174
4.710546
4.7667986
4.7969605
4.6425248
4.4624788
4.3337474
4.3039619
4.3840908
4.5444571
4.7233514
4.8207088
4.5309702
9.8512144
9.840603
9.8395742
9.83954
9.839519
9.8394991
9.8394904
9.8394999
9.8395223
9.839549
9.8396138
9.8425168
8.6192802
8.4740707
8.4642822
8.4604542
8.4585251
8.4575576
8.4573328
8.4578563
8.4593057
8.4619348
8.4676204
8.6107527
7.6320251
7.5215187
7.5129369
7.5050704
7.4989034
7.495107
7.4942363
7.4965875
7.5017254
7.5087402
7.5169653
7.6271215
6.8548651
6.7635158
6.7539814
6.7412688
6.7288397
6.720476
6.718437
6.7242125
6.7346311
6.7479068
6.7587713
6.8497004
6.2317598
6.1532819
6.1399961
6.1212123
6.0983774
6.1050531
6.0998136
6.0948934
6.1086767
6.1312746
6.1467659
6.2257801
5.7284097
5.6606299
5.6446321
5.6393631
5.5629586
5.6914563
5.7740876
5.5887828
5.6177437
5.636302
5.6525691
5.7224201
5.3237584
5.269865
5.2726337
5.3455973
8.4021068
10.996544
11.455524
10.04464
6.3898308
5.2145212
5.2666128
5.3204611
5.0052158
4.9752066
5.1128166
9.5538486
12.601523
13.930484
14.198691
13.405862
11.449117
6.7033831
4.9687269
5.0116614
4.7599131
4.7372439
7.6234984
11.778264
13.843663
15.316101
15.634174
14.689392
12.86989
10.345655
5.1525746
4.781718
4.5636196
4.8374637
9.7292675
12.076611
14.328733
16.268665
16.602924
15.436252
13.150434
11.035976
7.0573984
4.6022602
4.3874906
5.4745535
9.8315321
11.549831
13.593394
16.483349
17.085806
15.839559
12.5705
10.686102
8.4389029
4.5030123
4.2146381
6.2939805
9.3690658
10.636735
12.350906
15.525636
17.344151
15.143128
11.434888
9.988008
8.5416263
4.5989606
4.0470744
6.7874628
8.851
9.806893
11.130048
12.714594
13.011924
11.973259
10.358522
9.3192683
8.2243279
5.0191094
3.8919486
6.8738555
8.3430281
8.9724915
9.5556744
10.088376
10.198049
9.8353799
9.2378735
8.672267
7.8508125
5.437614
3.7562524
6.7625178
7.8182951
8.1481691
8.2951726
8.3813851
8.3928495
8.3324169
8.2162108
8.0108476
7.4629623
5.6641531
3.6542023
6.5577683
7.2832379
7.3937357
7.3163898
7.2194623
7.1905
7.252566
7.3519384
7.3662363
7.0517958
5.7330408
3.6067296
6.2911231
6.7614656
6.7304859
6.547049
6.3799789
6.3367286
6.4442208
6.6337748
6.7685175
6.6279085
5.6903714
3.6526015
5.9919956
6.2725663
6.1569919
5.9291937
5.7414302
5.6950128
5.8149369
6.035971
6.2312154
6.2100998
5.5679307
3.785965
5.6819122
5.8265644
5.6634675
5.4226341
5.2355417
5.1905065
5.3090229
5.5343764
5.7560642
5.8131633
5.3899461
3.938898
5.3756949
5.4258552
5.2381477
4.9997573
4.8221866
4.7802147
4.8918657
5.1093034
5.3387648
5.4452673
5.1769413
4.0345828
5.0823528
5.0682767
4.8697636
4.6413021
4.4765065
4.4380812
4.5410309
4.7454036
4.9724343
5.1093509
4.9459068
4.055849
4.8092678
4.7497698
4.5508215
4.3381141
4.1886977
4.1542273
4.2470159
4.4342559
4.6510121
4.8051014
4.7114497
9.8565218
9.840205
9.8395731
9.8395308
9.8394994
9.8394797
9.8394692
9.8394822
9.8395094
9.8395368
9.8396098
9.8414388
8.6177911
8.472468
8.4639578
8.4602201
8.4582431
8.4573572
8.4570854
8.4575728
8.4590457
8.461598
8.4668592
8.4800997
7.630051
7.5202922
7.5123429
7.5043728
7.498037
7.4942033
7.4932603
7.4956347
7.5009621
7.5080543
7.5159936
7.5231954
6.8530168
6.762179
6.7531521
6.7399115
6.7270023
6.7183157
6.7160478
6.7222102
6.7331151
6.7468268
6.7577173
6.7646873
6.2298334
6.1514373
6.138762
6.1185014
6.0978799
6.0998508
6.095916
6.1030631
6.1048266
6.1296554
6.1456055
6.155067
5.7264731
5.6580809
5.6435001
5.6336844
5.5664652
5.7739039
5.9176958
5.6205931
5.5860732
5.6358963
5.6517509
5.662841
5.3228627
5.2668309
5.2727549
5.448133
8.9313324
11.461835
11.897846
10.549247
6.87188
5.2248588
5.2678995
5.270063
5.0057822
4.9718281
5.2162001
10.015573
12.88486
14.21707
14.49028
13.684706
11.772742
7.2460159
4.9468571
4.9681124
4.7634653
4.7413791
8.0915257
12.01361
14.137406
15.677883
15.994705
15.02732
13.12878
10.653518
5.3472081
4.7418853
4.5708936
4.9713851
9.9752016
12.296611
14.72201
16.711475
16.948784
15.912876
13.452407
11.228085
7.5181975
4.5606812
4.395753
5.8774236
9.9753228
11.757172
14.287099
17.301361
17.252645
16.893388
12.910842
10.839384
8.7136793
4.4796695
4.2208041
6.7918029
9.4735856
10.787275
13.023534
17.571976
17.306879
17.35491
12.210645
10.098934
8.6908379
4.5557902
4.0517903
7.1085323
8.9323574
9.92587
11.419609
13.079104
13.249291
12.356884
10.533242
9.4037035
8.3295969
4.7197121
3.9008698
7.0695683
8.4046636
9.0395279
9.664815
10.228279
10.326491
9.963932
9.3153246
8.7271647
7.9379308
4.9940128
3.7693972
6.8814167
7.8598852
8.1751673
8.3219739
8.4100231
8.4194639
8.3585554
8.2377873
8.0386896
7.5289328
5.2874768
3.6930458
6.6275317
7.3071695
7.3965095
7.306788
7.2021775
7.1709787
7.2373441
7.3453189
7.3749934
7.0956218
5.4876108
3.6816428
6.3362139
6.7720144
6.7201073
6.5221745
6.3455804
6.3000448
6.4131089
6.6140377
6.7654092
6.6541288
5.545758
3.7348891
6.022958
6.2739514
6.1400366
5.8988023
5.7021566
5.6536877
5.7789385
6.0108342
6.2212488
6.2239627
5.4869618
3.835406
5.7031419
5.8220846
5.643622
5.3912068
5.1964953
5.1497244
5.27286
5.5076951
5.7424116
5.8188443
5.3423263
3.945904
5.3895429
5.4178441
5.2174324
4.9693101
4.7853647
4.7419488
4.8574844
5.0829541
5.3233702
5.445644
5.1459932
4.0266733
5.0901273
5.0583022
4.8492967
4.6126931
4.4425912
4.4029609
4.5091486
4.7202648
4.956475
5.1062786
4.9181052
4.0532482
4.8111018
4.7389566
4.531391
4.3119591
4.1581841
4.12271
4.2181533
4.4109739
4.6353555
4.7997598
4.6820479
9.8408558
9.8395643
9.8395295
9.8395072
9.8394756
9.8394666
9.83948
9.8395073
9.8395407
9.8396184
9.8432152
8.4758387
8.4650387
8.4610562
8.4592009
8.4581421
8.4578606
8.4583567
8.4598078
8.4625054
8.4686159
8.6114936
7.5223259
7.5141812
7.5065566
7.500729
7.4970407
7.4961407
7.4983691
7.5033121
7.5099791
7.5172404
7.6268265
6.7642891
6.7556478
6.7439855
6.7321899
6.724681
6.7227644
6.7275217
6.7378347
6.7499802
6.7587374
6.8490496
6.1543689
6.1424092
6.125632
6.1031611
6.095258
6.1033826
6.0963371
6.1148851
6.1343679
6.1471755
6.2244465
5.6618841
5.6476526
5.6324974
5.5461691
5.588913
5.6203862
5.5593336
5.6246938
5.6366661
5.6538058
5.7204506
5.2705749
5.2756018
5.2638893
7.320129
10.052294
10.554016
8.9416127
5.7277549
5.2565356
5.2684726
5.3176179
4.9763204
4.9802991
8.6062157
12.053005
13.433771
13.699243
12.898652
10.769763
5.8515495
4.9864543
5.0064211
4.7687056
6.6090069
11.334785
13.36315
14.749867
15.058341
14.15425
12.438306
9.7154395
4.9289992
4.7754425
4.6727047
9.159935
11.710598
13.739755
15.565969
15.972446
14.743106
12.701231
10.701443
6.1798471
4.5934551
5.0032507
9.551099
11.242347
13.279672
16.092625
17.02734
15.424111
12.128751
10.438579
7.8263624
4.4585837
5.549427
9.1803687
10.409574
12.10248
15.415482
17.514713
14.853649
11.067238
9.8080234
8.2209119
4.4390764
6.0878816
8.7110164
9.6440144
10.740199
12.064831
12.399118
11.397737
10.11108
9.1830862
8.0234403
4.6535612
6.3833952
8.2412422
8.8846753
9.4143336
9.8807173
9.9861242
9.6500069
9.1259438
8.5822129
7.6926556
5.0397948
6.4276476
7.7512794
8.1213708
8.2767296
8.3598075
8.3719015
8.3109424
8.1931115
7.9660101
7.339399
5.3568909
6.328885
7.2462118
7.4048116
7.3538345
7.2716723
7.2464738
7.2984902
7.3760539
7.3551885
6.9642794
5.515232
6.142164
6.7473512
6.7620864
6.6076525
6.458828
6.4199546
6.5156679
6.6803036
6.7791515
6.5727603
5.5380934
5.8960634
6.2744466
6.1984962
5.9973745
5.8267482
5.7843888
5.8934248
6.0915905
6.2546177
6.1798895
5.4616213
5.6207721
5.8388599
5.7088603
5.4911306
5.3189216
5.2773754
5.3865422
5.5922294
5.7864226
5.8005166
5.3153874
5.3375144
5.444504
5.2841436
5.0653186
4.900372
4.8613327
4.9651202
5.1659959
5.3724271
5.4443632
5.1237044
5.0593374
5.0905333
4.9145769
4.702624
4.5484707
4.5124947
4.6088428
4.799312
5.0071364
5.1159884
4.9069919
4.7979771
4.7736395
4.5931043
4.3941253
4.2535296
4.2210695
4.3083922
4.484137
4.6850538
4.8167162
4.6831663
9.8448764
9.8396139
9.8395421
9.8395183
9.839507
9.8395022
9.8395109
9.8395234
9.8395533
9.8398396
9.8515537
8.6123148
8.4685339
8.4631367
8.4610013
8.4601773
8.4600245
8.4605209
8.4617964
8.4649323
8.4737541
8.614137
7.62795
7.5179893
7.5110646
7.5059329
7.5029083
7.5022608
7.5041888
7.5082672
7.5141357
7.5208533
7.6278964
6.8506646
6.7599047
6.7514587
6.7423443
6.735862
6.7344006
6.7386466
6.746888
6.7558033
6.762916
6.8505059
6.2265636
6.1484023
6.1362325
6.1226241
6.1097271
6.1058029
6.1154406
6.1294997
6.1427154
6.1531273
6.2269061
5.722196
5.6548539
5.6411562
5.6397874
5.6182399
5.5866564
5.624769
5.6365656
5.6487156
5.6611896
5.7239266
5.3177713
5.2668153
5.2678343
5.3423418
6.3908024
6.8717351
5.7270142
5.2421875
5.2683457
5.2714453
5.3206535
5.0020918
4.9932985
5.4716422
9.5199203
11.470922
11.785619
10.771426
7.57786
4.9916018
4.9787742
5.0054986
4.7645163
4.9250144
9.301743
11.773664
12.916586
13.154184
12.444366
10.838336
6.5545003
4.7765152
4.7663268
4.5792187
6.3422748
10.489785
12.078684
13.226597
13.494127
12.710748
11.340751
9.1905443
4.7379216
4.5783002
4.419126
8.0774777
10.294708
11.560076
12.661954
12.96551
12.142545
10.930874
9.5356192
5.2506709
4.4060163
4.2842993
8.373374
9.7116456
10.646065
11.509806
12.270298
11.082631
10.171507
9.1671371
6.0372093
4.2342974
4.2634728
8.1156127
9.1170791
9.8156888
10.413679
10.570042
10.125253
9.4595464
8.6975376
6.6421643
4.0701112
4.4659957
7.7772107
8.5442194
8.9819646
9.2758378
9.3413126
9.1374764
8.7676981
8.2307773
6.822608
3.9705087
4.7996543
7.4150647
7.9539356
8.1586901
8.2434064
8.2563686
8.2019826
8.065289
7.7470816
6.7331433
3.9864909
5.0811221
7.0239646
7.3616271
7.4043953
7.3725708
7.3591808
7.3828296
7.3902974
7.245827
6.5396369
4.1815683
5.2320612
6.6169448
6.7965808
6.740459
6.65019
6.6248236
6.6855516
6.7723288
6.7486154
6.2847163
4.4489068
5.2560522
6.212018
6.2777025
6.1658445
6.0494979
6.0195221
6.095736
6.2222471
6.2761765
5.9936956
4.6457399
5.1810005
5.8239087
5.8119342
5.671046
5.5458098
5.5148883
5.5955761
5.7392972
5.8405058
5.6883616
4.718073
5.0369625
5.4614409
5.3984975
5.2444399
5.1191567
5.0890479
5.1687588
5.3173206
5.4458113
5.384459
4.6789058
4.8512071
5.1284067
5.0326907
4.8748764
4.7540234
4.7255252
4.801635
4.9482253
5.0913167
5.0922117
4.5696564
4.6490002
4.8253245
4.7092845
4.5548611
4.4418041
4.4155319
4.4861078
4.6256097
4.7737103
4.8202744
4.4270944
9.8566834
9.8408314
9.8395647
9.8395514
9.8395322
9.8395303
9.8395428
9.8395565
9.8396341
9.8423374
8.616725
8.4778289
8.4676575
8.4642392
8.4629336
8.4628268
8.4636247
8.4654456
8.4693435
8.6109426
7.629903
7.5236768
7.5172575
7.5127751
7.5101121
7.5096804
7.5114436
7.514811
7.5184094
7.6278288
6.8531174
6.7655318
6.7591633
6.7536538
6.7493975
6.7484848
6.7514377
6.7564536
6.7607675
6.8505165
6.2303394
6.1559455
6.1472909
6.139099
6.1326915
6.1310602
6.1354899
6.1430852
6.1502919
6.2254849
5.7272676
5.6640991
5.6537195
5.6433062
5.6374988
5.6368464
5.6372565
5.6487141
5.6570548
5.7200335
5.3232078
5.2738959
5.2666972
5.2742933
5.2153311
5.2250625
5.2578045
5.2683046
5.266804
5.3142484
5.0047868
4.9778603
5.0014797
5.226085
6.7051124
7.2406635
5.8448468
4.9910605
4.9811062
4.9984296
4.7584218
4.7668016
5.0847445
8.4665384
10.368246
10.663519
9.7107111
6.5451895
4.7678407
4.7636452
4.5614628
4.6016395
7.2745604
10.144468
11.07386
11.249695
10.706059
9.1848842
5.1198666
4.5849489
4.3845437
4.6792273
8.6816541
10.069211
10.728219
10.866868
10.448256
9.5354198
6.6673123
4.4370699
4.2102603
5.0586884
8.660486
9.547082
10.026882
10.126477
9.8205148
9.1689048
7.6268661
4.3812762
4.0413839
5.5644798
8.3216589
8.9893797
9.3526737
9.4288583
9.1964877
8.7010784
7.670734
4.4810944
3.8854068
6.0241056
7.9470198
8.4504721
8.6998584
8.7487908
8.5950352
8.2342367
7.4314025
4.7864349
3.7450713
6.2360617
7.5417548
7.8947545
8.0333627
8.0564633
7.9771297
7.750309
7.1440566
5.1538508
3.6357336
6.2289778
7.1125677
7.3311139
7.3847333
7.3894285
7.3643955
7.2487976
6.8312343
5.4222145
3.5921679
6.0890559
6.6755702
6.786856
6.7839263
6.7771953
6.7866673
6.7511967
6.4897542
5.5330187
3.6289395
5.8709854
6.2480082
6.2819685
6.2442348
6.2309739
6.260742
6.2783439
6.1337641
5.5033417
3.7474536
5.6120921
5.8434157
5.8251563
5.7672064
5.750531
5.7914362
5.8423051
5.7804903
5.3753211
3.8988186
5.339036
5.4692475
5.4172281
5.3484096
5.3302383
5.3765729
5.4473102
5.4423613
5.189376
4.0176743
5.0677224
5.1280295
5.0547
4.9808677
4.962371
5.0106116
5.0925783
5.1261506
4.9740557
4.0710979
4.8110354
4.8189149
4.7328242
4.6584135
4.6404519
4.6879976
4.7747815
4.8352739
4.7497186
9.8534848
9.8411027
9.8396948
9.839614
9.839613
9.8396286
9.8398524
9.8423268
9.851996
8.6148086
8.4790463
8.4701007
8.4686816
8.4682399
8.4698761
8.4746004
8.6113778
8.616019
7.6280657
7.5238978
7.5185608
7.5183138
7.5177814
7.5191336
7.5220733
7.628281
7.6294663
6.8506794
6.7657597
6.7604729
6.7601931
6.7595063
6.7607688
6.7642018
6.8507317
6.8521936
6.227418
6.1563724
6.1495942
6.1481241
6.147045
6.1488672
6.1542187
6.2259018
6.228773
5.7240811
5.6647086
5.6561477
5.6537542
5.6526365
5.6547593
5.6618395
5.7208509
5.7252884
5.319997
5.273965
5.2661133
5.2675563
5.2685617
5.2686646
5.2718055
5.3150094
5.3200619
5.0024564
4.9751713
4.9763466
4.9703468
4.9470911
4.9864374
4.9788788
4.9988034
4.9993783
4.7579627
4.7586251
4.7673411
5.1525845
5.3427734
4.9256138
4.7767945
4.7636015
4.7491619
4.5631598
4.5792707
5.2479093
7.0574238
7.5070981
6.1574209
4.7348232
4.5843207
4.5482851
4.3873246
4.5521678
6.672981
8.4498363
8.7153127
7.8070547
5.2368574
4.4354722
4.3701836
4.212206
4.7345489
7.5433444
8.5583677
8.7004152
8.2149023
6.0110544
4.3781775
4.1977474
4.0418775
5.0425779
7.625353
8.2425573
8.3406543
8.0219933
6.6177762
4.473977
4.0318372
3.8869342
5.4388921
7.4107785
7.8672325
7.9486455
7.6922251
6.807116
4.7752513
3.87766
3.7515277
5.757038
7.1239494
7.4769881
7.5389581
7.3403545
6.7236721
5.1411839
3.7395776
3.685112
5.8983946
6.8089292
7.0638681
7.1046854
6.9664712
6.5331315
5.410449
3.6248771
3.708071
5.872499
6.4697905
6.6384725
6.6621565
6.5756717
6.2801985
5.5236511
3.5536078
3.8520121
5.7330052
6.1177381
6.2194315
6.2310044
6.1830093
5.9904962
5.4966696
3.5686792
4.0601602
5.523502
5.7678233
5.8214448
5.824995
5.8035203
5.6861173
5.3708127
3.6767982
4.2122675
5.2810154
5.4319791
5.4526443
5.451028
5.4471014
5.3829157
5.1862903
3.8439388
4.2659245
5.028784
5.1171238
5.1159489
5.1110321
5.1184645
5.0911959
4.971929
3.9933564
4.2392676
4.7846862
4.8277883
4.8110426
4.8039906
4.818985
4.8197263
4.7482077
4.0656223
9.8510381
9.8482418
9.8425104
9.84145
9.8432089
9.851554
8.6178595
8.614253
8.6116207
8.481019
8.612682
8.6148019
7.6314393
7.6286913
7.6282731
7.5245854
7.6287481
7.6287621
6.8542461
6.8513986
6.8507226
6.7660948
6.8510927
6.8514309
6.2310725
6.2282027
6.226753
6.1562311
6.226647
6.2279896
5.7274784
5.7255276
5.7233835
5.6635789
5.7222283
5.7251007
5.3223724
5.3235183
5.3215669
5.2708696
5.3186695
5.3216932
5.0022182
5.0111544
5.012616
4.969127
5.0070906
5.0063401
4.753382
4.7765454
4.7826143
4.7430134
4.7761696
4.7670218
4.5531539
4.5895615
4.6029492
4.562451
4.5942864
4.5788055
4.3749719
4.423283
4.5024758
4.4777575
4.458208
4.4065109
4.2021131
4.2683452
4.5946591
4.5484319
4.4330265
4.2343496
4.0354596
4.1765028
5.0081033
4.7049293
4.6316565
4.07001
3.8809588
4.1969154
5.4252735
4.9705562
5.0078547
3.9659294
3.7411979
4.3842115
5.6534988
5.2607995
5.3261069
3.9724366
3.6235092
4.63718
5.7249092
5.4630709
5.490433
4.1533104
3.5448915
4.848534
5.6844821
5.5268325
5.5194715
4.4166718
3.5489086
4.9572774
5.5639511
5.4739652
5.4481389
4.6177502
3.6537135
4.9529259
5.3876407
5.3341979
5.3060021
4.6977505
3.8268316
4.8587736
5.1762154
5.1414807
5.1174696
4.6651269
3.9760693
4.7077653
4.946558
4.9165337
4.9030683
4.5600178
4.0405883
4.5300808
4.7131048
4.6818092
4.6808215
4.4197971
9.8510363
9.8515574
8.907537
8.9032162
9.8482446
9.8432011
8.9019515
8.897489
9.8565186
8.910172
8.9089386
9.8424996
9.8414442
8.896593
9.0497726
9.8512323
8.9089997
8.9101576
9.8414339
9.8425057
9.0498148
8.8963648
9.8431977
9.8482396
8.8977267
8.9018472
9.8515579
9.8510365
8.9031402
8.9075004
4.0529534
4.4226289
4.0501765
4.2959538
4.5284158
4.6781491
4.3860018
4.5205826
4.0921282
4.0663057
4.0771776
4.7084404
4.6781229
4.5427609
4.5919536
4.0956433
4.0786811
4.0725238
4.6785034
4.7098114
4.5919268
4.543837
4.6805938
4.5338949
4.5224345
4.390453
4.4302678
4.0768841
4.3023068
4.0699754
9.8519908
8.9055905
9.8566655
8.9068699
9.853485
9.8423401
8.9044154
8.8962845
8.906889
9.8423238
9.853469
8.8961527
8.9042816
9.8519857
8.9057438
4.0856245
4.0856272
4.0959198
4.0836318
4.2470355
4.7475486
4.1812502
4.5883717
4.1035561
4.7504197
4.266306
4.5896702
4.1967264
4.1154068
4.1086615
9.8534778
8.9044513
9.8566775
9.8423352
8.9069309
8.8962088
8.9044911
9.8423216
9.8566825
8.8962075
8.9069472
4.2450639
4.179333
4.0841929
4.7489904
4.0747693
4.5898859
4.1947415
4.7497173
4.1118357
4.5893984
4.0960923
9.8509598
8.9075102
9.8515564
8.9031179
8.9075675
9.8515632
8.9029312
4.0384182
4.0381921
4.4177707
4.291613
4.060886
4.4258008
4.2986775
9.8482461
8.9019193
9.8432044
8.8972412
8.9018069
9.8431951
8.8971386
14.384557
12.619328
13.244963
15.856105
16.712941
15.390689
17.215466
13.910126
13.24451
12.60807
16.70874
15.815984
17.222874
15.329754
12.898066
11.346132
11.799743
15.188642
17.187525
13.141708
13.958675
12.290464
11.799301
11.33255
17.193533
15.138631
13.959709
13.117876
4.5271675
4.3853437
4.6797919
4.5234897
4.3883382
4.6810046
4.5234228
9.8425055
8.9100441
8.8961838
9.8563895
9.8414355
8.9088023
9.0494856
9.8512102
8.8960588
8.9100766
9.8414177
9.8565215
9.0493615
8.9088191
17.093094
15.633356
17.357797
17.256938
17.191088
17.594845
17.421334
16.431538
17.367322
15.561234
17.186708
17.204287
17.421062
17.505385
13.568887
15.337658
12.643668
16.854954
14.248789
17.379526
13.324698
15.208141
11.376153
13.156231
13.012434
17.42046
11.867893
14.041558
17.340193
13.665989
14.386054
17.562394
17.286983
14.459854
14.596766
15.462698
14.386345
13.636437
17.286748
17.476325
14.590281
14.414554
12.320085
13.123867
11.350582
17.337041
12.973012
13.993245
11.831402
4.7106046
4.0406389
4.5460548
4.0544046
4.6794687
4.0463518
4.596563
4.0836125
4.5458447
4.0634445
4.6814399
4.0853425
4.5961329
4.0720815
9.8414241
8.9087992
9.0496045
9.8512085
9.8425095
8.9100324
8.8961495
9.8563953
9.0495786
8.9088484
9.8425016
9.8512159
8.8958211
8.9099901
17.432474
11.875602
14.056784
12.415248
15.40966
11.426406
13.257775
17.309824
14.478146
14.619999
15.755414
17.661009
13.781869
14.509027
17.497414
14.613217
14.437297
17.660982
15.672533
14.499092
13.728549
12.986088
14.013061
11.839561
15.331063
12.380014
13.202074
11.38727
4.6794225
4.0453172
4.5967473
4.0506716
4.7100627
4.0364532
4.5457106
4.0860083
4.5963826
4.0725159
4.7131247
4.0849836
4.5473944
4.0644525
9.8431993
8.8976479
9.8482382
8.9018214
8.8972956
9.8482463
8.9014409
17.028866
15.6315
17.566348
13.698066
14.350041
12.764535
13.42362
16.053749
17.568831
15.557109
14.347034
13.674508
13.419435
12.739587
17.517459
13.261796
14.089515
12.433717
13.062818
11.433056
11.897258
15.339167
14.079887
13.213623
13.058685
12.407139
11.892704
11.411471
4.6788699
4.5228036
4.5240252
4.3829059
4.525466
4.5333856
4.39034
9.8515646
8.9031127
9.8509602
8.9074714
8.9031087
9.8509638
8.9073441
4.4138459
4.2883131
4.0245107
4.02665
4.2996306
4.0600881
4.0559796
9.8423274
8.9069162
8.8961154
9.853461
8.9042527
9.8566829
8.8961385
8.9067847
9.85348
8.904512
4.7503209
4.0637201
4.5918295
4.2364163
4.1721657
4.1027021
4.590363
4.0881069
4.215452
4.1592734
9.8519854
8.9057047
9.8423263
8.9044031
8.8961677
9.8566661
8.9068828
9.8534451
8.8965902
8.9043737
9.8566627
8.9069538
8.9057645
4.0720128
4.0748551
4.7524102
4.1745096
4.5932443
4.0850321
4.0750425
4.2142915
4.5892531
4.1583073
4.0895165
4.0773557
4.0664396
9.8515491
8.907566
8.9031248
9.8431973
8.9022118
8.8975652
9.8414368
8.8968268
9.0497979
9.8512316
9.8563792
8.9100945
8.9089287
9.8425017
9.0500926
8.8968189
9.8565177
9.8512299
8.9089785
8.9102409
9.8482444
8.8982127
8.9020737
9.8510358
8.9035435
8.9076086
4.4210638
4.0398724
4.2942717
4.6825749
4.387622
4.525415
4.6819249
4.5477868
4.5977722
4.0674598
4.0686118
4.050008
4.0578451
4.7118351
4.5978548
4.5466155
4.0682559
4.0657337
4.0577025
4.0487708
4.5277738
4.5238019
4.3856264
4.0444537
4.2932085
4.042848
9.5425071
9.8506251
9.5412722
9.8554315
9.5449467
9.8571604
9.5439589
9.8531655
9.5439546
9.8537731
9.5460841
9.5421192
9.8564523
9.5441661
9.8511924
9.5410796
9.8519226
9.5446282
9.541292
9.8566972
9.5409148
9.8555158
9.5415945
9.8524334
9.8448823
8.9057447
8.8988295
9.8410974
9.8398463
9.0458708
9.0401192
9.8530267
8.8989429
8.9056493
9.8398485
9.841085
9.0399883
9.0458219
9.5447934
9.8520724
9.5434064
9.8522287
9.5427673
9.5410666
9.8544094
4.6493127
4.1455106
4.4939853