/*--------------------------------*- C++ -*----------------------------------*\
| =========                 |                                                 |
| \\      /  F ield         | OpenFOAM: The Open Source CFD Toolbox           |
|  \\    /   O peration     | Version:  2406                                  |
|   \\  /    A nd           | Website:  www.openfoam.com                      |
|    \\/     M anipulation  |                                                 |
\*---------------------------------------------------------------------------*/
FoamFile
{
    version     2.0;
    format      ascii;
    arch        "LSB;label=32;scalar=64";
    class       volScalarField;
    location    "50";
    object      p;
}
// * * * * * * * * * * * * * * * * * * * * * * * * * * * * * * * * * * * * * //

dimensions      [0 2 -2 0 0 0 0];

internalField   nonuniform List<scalar> 
71615
(
0.36355307
0.35928521
0.35718362
0.3571917
0.35138348
0.35155677
0.34050554
0.34074564
0.32165547
0.32199483
0.29142554
0.29186891
0.24417767
0.24460906
0.1744132
0.17480523
0.079772435
0.080041831
-0.030529678
-0.030871508
-0.13296598
-0.13377524
-0.20086537
-0.20190057
-0.22326409
-0.22389545
-0.21016789
-0.21049457
-0.17893723
-0.17918186
-0.14212903
-0.14217485
-0.10670425
-0.10662202
-0.077052141
-0.076798238
-0.054091484
-0.053643237
-0.036375256
-0.035860689
-0.022228175
-0.021768765
-0.010522114
-0.010000119
0.35947886
0.36031145
0.36159362
0.36217046
0.36148791
0.36027679
0.35882014
0.35674356
0.35812278
0.35983419
0.3605228
0.35924078
0.35781884
0.35695591
0.35097454
0.3522869
0.3543888
0.35515003
0.35357468
0.35233646
0.35114885
0.3397686
0.34187137
0.34489593
0.34579187
0.34363778
0.34200296
0.33992633
0.3204706
0.32348079
0.32806069
0.32925523
0.32626642
0.32402451
0.32079081
0.28944376
0.29269567
0.29929808
0.30090156
0.29680881
0.29441333
0.29001922
0.24167777
0.24379812
0.25218546
0.25399252
0.24887237
0.24741903
0.2423193
0.17164178
0.16929031
0.17651683
0.17769817
0.17356854
0.17690114
0.17260943
0.077836485
0.065448129
0.065873386
0.064981386
0.066022806
0.079981376
0.079209119
-0.030793419
-0.055959299
-0.069016797
-0.073411163
-0.062511599
-0.034091833
-0.028954532
-0.13166857
-0.16545561
-0.18881849
-0.19499841
-0.17789772
-0.14046665
-0.12963317
-0.1989466
-0.22895279
-0.25190638
-0.25713983
-0.24138496
-0.20969681
-0.19717385
-0.22130562
-0.23789234
-0.25173888
-0.25434055
-0.24580358
-0.22961425
-0.22029264
-0.20872596
-0.21144687
-0.21565729
-0.21602748
-0.21422018
-0.21271225
-0.20854722
-0.1782267
-0.17212518
-0.1705257
-0.16987011
-0.17166561
-0.17874005
-0.17856161
-0.14187513
-0.13232859
-0.12856353
-0.12771196
-0.13057904
-0.14058183
-0.1424254
-0.10664982
-0.097087538
-0.093198564
-0.092490314
-0.095212192
-0.10487985
-0.10733201
-0.076660343
-0.068489768
-0.06525248
-0.064710784
-0.066955308
-0.075025673
-0.077444074
-0.053428389
-0.046747867
-0.044241314
-0.043830007
-0.045594027
-0.051999757
-0.054224458
-0.035848877
-0.030554826
-0.02864627
-0.028324053
-0.029666933
-0.034680889
-0.036548546
-0.021886396
-0.018047694
-0.016670923
-0.016445971
-0.017382917
-0.021195305
-0.022386827
-0.010168862
-0.0079067326
-0.0071667782
-0.0070298887
-0.0075672438
-0.010199235
-0.010426616
0.35920418
0.36201233
0.3657208
0.36869256
0.36969182
0.36832549
0.36525069
0.36171074
0.35929525
0.35695572
0.36052803
0.36526785
0.36891087
0.36985439
0.36757588
0.3632501
0.35871617
0.35696448
0.35135462
0.35505127
0.36121577
0.36622639
0.36755051
0.36428103
0.35837305
0.35285011
0.35110538
0.34046229
0.34570947
0.35453321
0.36177407
0.36365288
0.35887016
0.35039243
0.34258473
0.33980489
0.32140906
0.32901712
0.34225075
0.35312193
0.35587803
0.34877982
0.33612432
0.32452707
0.32056074
0.29060911
0.30007217
0.31908171
0.33528592
0.33945702
0.32874016
0.31034713
0.29411201
0.28972109
0.24271361
0.25216027
0.27593667
0.29793085
0.30360585
0.28890878
0.2647129
0.24522248
0.24179056
0.17267909
0.17528115
0.19440664
0.20844926
0.21163567
0.20375487
0.18598238
0.17031834
0.17182764
0.077976775
0.062547156
0.053020681
0.035515751
0.030506508
0.044749982
0.060918839
0.065852158
0.078533511
-0.032299681
-0.075132183
-0.12916921
-0.18590695
-0.20011167
-0.16082576
-0.098277847
-0.057315236
-0.029611761
-0.13450729
-0.19680967
-0.27956621
-0.35541316
-0.37417327
-0.32316666
-0.23534992
-0.16845713
-0.130024
-0.20217852
-0.25881864
-0.33149669
-0.39212246
-0.40695104
-0.36702061
-0.29444009
-0.23248644
-0.19715544
-0.22384306
-0.25582463
-0.29498208
-0.32382171
-0.33116099
-0.31236924
-0.2763339
-0.24085274
-0.21980608
-0.21006818
-0.21685549
-0.22758869
-0.23464089
-0.23673093
-0.23218391
-0.2233279
-0.21327875
-0.20816367
-0.1785776
-0.1698896
-0.16564781
-0.16283414
-0.16247367
-0.16432722
-0.1683848
-0.17285114
-0.17835267
-0.14163418
-0.12705106
-0.11741221
-0.11135273
-0.11018058
-0.11411977
-0.12238533
-0.13232067
-0.14230853
-0.10620762
-0.091414639
-0.081495172
-0.075328522
-0.074090265
-0.078078301
-0.086439194
-0.096761963
-0.1072683
-0.076095853
-0.063536333
-0.05536508
-0.050275502
-0.049247816
-0.052553626
-0.059456356
-0.068026707
-0.077096954
-0.052846069
-0.042763399
-0.03655495
-0.032662132
-0.031875205
-0.034417298
-0.039690022
-0.046236112
-0.053646234
-0.035470739
-0.027477944
-0.022852675
-0.01993665
-0.019342125
-0.021241298
-0.025166848
-0.030082342
-0.036011878
-0.021809813
-0.015858705
-0.012524558
-0.010347815
-0.0098967871
-0.011298973
-0.014161752
-0.017687989
-0.022018562
-0.010349711
-0.0068558087
-0.0048266176
-0.0033335522
-0.0030157069
-0.0039679845
-0.005815627
-0.0078111737
-0.010045365
0.35936554
0.3620228
0.36774943
0.37408546
0.37894634
0.38052601
0.37822542
0.37301715
0.36680855
0.3615924
0.3621558
0.35649601
0.36042075
0.36773937
0.37573492
0.38172202
0.38318154
0.37943057
0.37221459
0.36437713
0.35831807
0.35714543
0.35065012
0.35483643
0.36437605
0.3755898
0.38433475
0.3865059
0.38090064
0.37044718
0.35974368
0.35234288
0.35127141
0.33936214
0.34546067
0.35912149
0.37578322
0.3890749
0.39235033
0.383763
0.36798786
0.35233892
0.34179919
0.33998935
0.32013246
0.32878489
0.34929073
0.37445413
0.39323086
0.39774361
0.38582872
0.36274699
0.33898838
0.32326159
0.32101045
0.28898467
0.29983716
0.32929256
0.36738671
0.4015073
0.41004658
0.38667905
0.34890198
0.31433456
0.29241036
0.29047735
0.24107676
0.25186024
0.28882574
0.34059967
0.38331081
0.39293815
0.36621862
0.31501103
0.26950758
0.24325487
0.24266438
0.17107189
0.17489389
0.20290934
0.22631676
0.23444743
0.23676821
0.23273593
0.21853021
0.18961563
0.16864156
0.17296106
0.077231728
0.062078137
0.041497996
-0.016987974
-0.056781502
-0.060742113
-0.041437478
0.015587594
0.05830771
0.06519288
0.07911491
-0.031365685
-0.075633042
-0.16952211
-0.30470504
-0.38352059
-0.3947426
-0.35346321
-0.23934024
-0.11094264
-0.055175016
-0.029342837
-0.13217426
-0.19725201
-0.33252518
-0.49649641
-0.6090154
-0.63236858
-0.56322272
-0.41742263
-0.25440411
-0.16328823
-0.13020818
-0.19882995
-0.25904286
-0.37230739
-0.49956231
-0.60127781
-0.62184699
-0.55767094
-0.43777081
-0.31066658
-0.22677224
-0.19776924
-0.22107118
-0.25590954
-0.31492454
-0.37330508
-0.41726591
-0.42952226
-0.39919412
-0.34584589
-0.28473573
-0.2366799
-0.22061264
-0.20869011
-0.21691295
-0.23248611
-0.24606791
-0.25645419
-0.25951261
-0.25260567
-0.24013002
-0.22507326
-0.21134739
-0.20892822
-0.17833227
-0.16998592
-0.1631342
-0.157288
-0.15423104
-0.15397703
-0.15583694
-0.16033282
-0.1667902
-0.17263412
-0.17865592
-0.14197852
-0.12714948
-0.11229846
-0.10032968
-0.09340923
-0.092162446
-0.096504145
-0.10612602
-0.1198261
-0.13302525
-0.1423064
-0.10659598
-0.091436682
-0.076280529
-0.06425671
-0.057270835
-0.055944295
-0.060312662
-0.070008096
-0.083975008
-0.09772781
-0.10716154
-0.076544697
-0.063499379
-0.051018877
-0.04106137
-0.035209675
-0.034076074
-0.037748646
-0.045835969
-0.057409584
-0.068933659
-0.077454289
-0.053398612
-0.042716753
-0.033206286
-0.02550105
-0.020912927
-0.0200132
-0.022901987
-0.029207781
-0.038094868
-0.046988899
-0.054399074
-0.035911559
-0.027456198
-0.020357203
-0.014521039
-0.010981125
-0.010278203
-0.012501581
-0.017325742
-0.023967375
-0.030674232
-0.036677281
-0.021959255
-0.015858313
-0.010700338
-0.0063187312
-0.003641502
-0.0031031879
-0.0047726673
-0.0083934678
-0.013314863
-0.018125297
-0.022461192
-0.01014813
-0.0068591516
-0.0036342521
-0.00051736091
0.0015028377
0.0019237511
0.00066195907
-0.0019825417
-0.0053266559
-0.0079662338
-0.010600184
0.36021798
0.36580032
0.3741615
0.38313359
0.39001758
0.39226442
0.38898103
0.38152935
0.3725987
0.36484206
0.3603544
0.35784554
0.36508958
0.3756561
0.38706777
0.39565194
0.39773034
0.39226775
0.38193523
0.3706618
0.36161056
0.35776288
0.35180581
0.36081434
0.37537924
0.39212576
0.40536053
0.40866095
0.40000906
0.3843444
0.36816867
0.35619306
0.35215122
0.34123658
0.3540211
0.37550343
0.4012206
0.42000369
0.42441762
0.41287794
0.38916245
0.36463875
0.34729091
0.34157581
0.32277791
0.34167333
0.37413145
0.40951986
0.43856901
0.44634063
0.42608233
0.39354012
0.35767096
0.33150675
0.32336413
0.29185304
0.31844713
0.36701292
0.43641987
0.49959993
0.51366576
0.47251297
0.40008561
0.34156958
0.3038133
0.29373392
0.24279478
0.275202
0.34011821
0.42107853
0.47527031
0.48738594
0.45391778
0.38335903
0.30520924
0.25674013
0.2464166
0.1682811
0.19349531
0.22566468
0.23909637
0.26999156
0.28379191
0.25318383
0.23489438
0.21279921
0.1791783
0.1760399
0.064226033
0.051792232
-0.017972165
-0.081459687
-0.035159336
-0.00092110848
-0.068326524
-0.059339352
0.026850752
0.062667708
0.079778392
-0.057151859
-0.13070451
-0.30630148
-0.43428044
-0.38492022
-0.33074105
-0.42616878
-0.38668137
-0.21103675
-0.081111068
-0.033081334
-0.16623946
-0.28084173
-0.49815491
-0.69834246
-0.7440001
-0.70914727
-0.7450859
-0.60723935
-0.38418329
-0.20643945
-0.13787703
-0.22894553
-0.33191415
-0.49998394
-0.69058316
-0.85086298
-0.95420078
-0.81946586
-0.59272683
-0.41206988
-0.26725633
-0.20649761
-0.23759391
-0.29496455
-0.37336737
-0.46178799
-0.56260356
-0.59569667
-0.51170814
-0.41556967
-0.33340556
-0.26030878
-0.22732634
-0.21129206
-0.22745353
-0.24590272
-0.2664838
-0.29069105
-0.29845291
-0.27912291
-0.25604757
-0.23678372
-0.21806288
-0.21190992
-0.17220721
-0.16555705
-0.15706183
-0.15169682
-0.15104639
-0.15157465
-0.15130926
-0.15412378
-0.16128713
-0.16934683
-0.17900831
-0.13244049
-0.11731881
-0.10010348
-0.087259073
-0.080325944
-0.0791332
-0.083378039
-0.093338566
-0.10858019
-0.12586017
-0.14128222
-0.09703913
-0.081314817
-0.064035402
-0.051064225
-0.043694367
-0.042303265
-0.046901458
-0.057211969
-0.072577111
-0.090233434
-0.10573828
-0.068313046
-0.055145039
-0.040873249
-0.029975878
-0.023692315
-0.02248932
-0.026404184
-0.035168412
-0.048005291
-0.062671516
-0.075912638
-0.046594738
-0.0363748
-0.025362318
-0.016786131
-0.011767855
-0.010805227
-0.013935503
-0.02088689
-0.030909698
-0.042198662
-0.052802379
-0.030492358
-0.022744532
-0.014427485
-0.0078076094
-0.0039438255
-0.0031934673
-0.0056034797
-0.010954995
-0.018615016
-0.027064351
-0.035281293
-0.018045709
-0.012472333
-0.0062582917
-0.0012428203
0.001724762
0.0023075384
0.00047053044
-0.0036098358
-0.0093661576
-0.015510567
-0.021560505
-0.0079247258
-0.004811204
-0.00049166658
0.0033338665
0.0057643444
0.006268227
0.0047527002
0.0015312089
-0.0026656392
-0.0066248911
-0.010448777
0.36330671
0.36150962
0.36877193
0.37906267
0.39003511
0.39849717
0.40128429
0.39723865
0.38806485
0.37711386
0.36750117
0.36129859
0.35676454
0.35946644
0.36863182
0.38154233
0.39556086
0.40629294
0.40889709
0.40198055
0.38915451
0.37536437
0.36421062
0.35868369
0.35084256
0.35374579
0.3656264
0.38392037
0.4051727
0.42239737
0.42661503
0.41535876
0.39510885
0.37476261
0.3594295
0.35308979
0.33966854
0.34408239
0.36101154
0.38852891
0.41973093
0.44099844
0.44649661
0.43303591
0.40565116
0.37448647
0.35192732
0.343208
0.320683
0.32707745
0.35222952
0.39261607
0.43826468
0.48435185
0.49680889
0.46339034
0.41606543
0.3724444
0.33858919
0.32603548
0.28996391
0.29799465
0.33422095
0.40070353
0.49907161
0.57863212
0.59660441
0.54530671
0.44827643
0.36467872
0.31422566
0.29735704
0.24265646
0.25064506
0.29654957
0.38200238
0.47449254
0.54672832
0.56710885
0.51519036
0.43253264
0.33655052
0.26996309
0.2510624
0.17273696
0.17492226
0.20666562
0.23279723
0.26908858
0.38275309
0.42719124
0.3211816
0.24472553
0.22465585
0.19009941
0.18010251
0.077863901
0.06393694
0.033224651
-0.059257268
-0.034720932
0.23675147
0.3509442
0.080242625
-0.076318164
-0.0091798955
0.05717465
0.080224261
-0.031940188
-0.070891389
-0.18862185
-0.38822183
-0.37603521
0.12522193
0.3478719
-0.18565393
-0.43391801
-0.29144838
-0.11131216
-0.039393221
-0.13384973
-0.19005073
-0.35754609
-0.6155285
-0.79843185
-0.39854146
0.34560067
-0.3622614
-0.73347028
-0.48374397
-0.2528019
-0.14998483
-0.20097434
-0.25206408
-0.3922207
-0.60066734
-0.84282904
-1.0361156
-1.2113969
-1.1970514
-0.72772092
-0.48985428
-0.30808351
-0.21939281
-0.22299177
-0.25139135
-0.32326958
-0.41684635
-0.56107198
-0.84501433
-0.9372045
-0.6861267
-0.47581368
-0.36797335
-0.28242872
-0.23593216
-0.20998175
-0.21526454
-0.23393819
-0.25561292
-0.28989821
-0.3469828
-0.36424158
-0.31694068
-0.27027876
-0.24446681
-0.22431803
-0.21493283
-0.17887458
-0.17036662
-0.16224211
-0.15347008
-0.1504966
-0.15537951
-0.15719885
-0.15254691
-0.15125694
-0.15772111
-0.16717207
-0.1782375
-0.14177104
-0.12847338
-0.11083311
-0.09274884
-0.079871547
-0.073642796
-0.072687787
-0.076220022
-0.085865241
-0.10163198
-0.12053991
-0.13888992
-0.10616233
-0.092960527
-0.074793522
-0.056719656
-0.043342662
-0.035841948
-0.034470059
-0.039045577
-0.049659834
-0.065645113
-0.084704453
-0.10289417
-0.076603422
-0.064921199
-0.049787219
-0.03477916
-0.023427009
-0.01689654
-0.015656507
-0.019698237
-0.028810354
-0.042273717
-0.058116962
-0.073212602
-0.053851344
-0.043961824
-0.032293841
-0.020599252
-0.011571381
-0.006399005
-0.0053952419
-0.0085977357
-0.015871649
-0.026483669
-0.038742069
-0.050480083
-0.03624625
-0.028497903
-0.019700226
-0.010762541
-0.0038019843
0.0001916217
0.00097025644
-0.0014937248
-0.0071020871
-0.015268834
-0.024497715
-0.033392164
-0.022129825
-0.016630102
-0.010210891
-0.0034997996
0.0018192632
0.0049161299
0.0055254505
0.0036056983
-0.00069692302
-0.0068697856
-0.013653964
-0.020146159
-0.01038779
-0.0071962334
-0.0032786439
0.001550726
0.0058040729
0.0084661575
0.009022648
0.0073542546
0.0037930942
-0.00089052159
-0.0054519103
-0.0094724008
0.35892635
0.36195544
0.36965551
0.38054448
0.39216595
0.40110324
0.4040661
0.39978407
0.39007203
0.37851503
0.36835571
0.36171292
0.35663878
0.36000457
0.36941592
0.38283594
0.39746347
0.40872283
0.41145596
0.40418108
0.39075427
0.37640405
0.36487803
0.35822331
0.35086834
0.35439517
0.36678395
0.38589331
0.4082596
0.42638866
0.43077124
0.41898993
0.39760526
0.37627353
0.36032064
0.3518587
0.33981778
0.3449001
0.36272089
0.39156704
0.42387005
0.4461535
0.4521461
0.4376971
0.40938048
0.37680227
0.35315236
0.34111598
0.32088434
0.3280981
0.35474724
0.39690925
0.44577112
0.4965471
0.51059805
0.47329843
0.42155722
0.37585295
0.34038357
0.32253311
0.29003618
0.29920433
0.33800297
0.40880811
0.51258759
0.59592114
0.61534675
0.56093564
0.45955046
0.37034784
0.31681005
0.2916862
0.24286369
0.25192037
0.30156261
0.3908072
0.48577629
0.56604483
0.58997275
0.53012914
0.44248961
0.34383212
0.27348488
0.242853
0.1727368
0.17549771
0.20887911
0.23395519
0.28144085
0.42594441
0.48108157
0.3483635
0.24907236
0.2266394
0.19299317
0.16880551
0.077620825
0.062349774
0.027458597
-0.065187178
-0.0059515067
0.35084246
0.48899131
0.15047227
-0.069717219
-0.017536903
0.055247871
0.066078753
-0.032603027
-0.075852908
-0.20321103
-0.40285509
-0.33478819
0.34378991
0.57282369
-0.051221465
-0.42926888
-0.30903483
-0.1199561
-0.053544083
-0.13519703
-0.19648247
-0.37621759
-0.64166055
-0.76524003
0.33763439
1.1859961
0.2445563
-0.75117252
-0.50716256
-0.26608557
-0.16048232
-0.20230834
-0.25712108
-0.40620885
-0.61663297
-0.93840946
-1.2310471
-0.42288834
-1.2817972
-0.85542706
-0.50815011
-0.31940436
-0.22371053
-0.22370421
-0.25354112
-0.32962892
-0.42755221
-0.59374271
-0.9383116
-1.0084638
-0.74955677
-0.49235612
-0.37631666
-0.28865837
-0.23438588
-0.21023461
-0.21515488
-0.235276
-0.25761884
-0.29657427
-0.36351221
-0.37959979
-0.32870965
-0.27421287
-0.24636669
-0.22617622
-0.21034161
-0.17885047
-0.16914872
-0.16128535
-0.15239794
-0.15016216
-0.1565216
-0.15873633
-0.15314343
-0.15079828
-0.15702668
-0.16669585
-0.17281294
-0.14162205
-0.12709903
-0.10918535
-0.090944816
-0.078126978
-0.072187051
-0.071143988
-0.074605115
-0.084277925
-0.10016688
-0.11932535
-0.13391388
-0.10595762
-0.091836936
-0.073214433
-0.054998124
-0.041555702
-0.034072848
-0.032710649
-0.037256885
-0.048041315
-0.064164976
-0.083457635
-0.098881777
-0.076261857
-0.064078922
-0.048518175
-0.03336383
-0.021947063
-0.01537095
-0.014154588
-0.018178208
-0.02744516
-0.041039345
-0.057080154
-0.070126968
-0.053368679
-0.043320722
-0.031330878
-0.019493098
-0.010405081
-0.0051819068
-0.0041998961
-0.0074106808
-0.014787502
-0.025521008
-0.037947672
-0.048066465
-0.035803691
-0.028008698
-0.018982318
-0.0099190861
-0.0029079633
0.0011222862
0.0018830107
-0.00058777515
-0.006272478
-0.014528905
-0.023912666
-0.031511733
-0.021806339
-0.016279682
-0.0096839451
-0.0028787708
0.0024925716
0.0056207075
0.0062189543
0.0042994135
-5.5565358e-05
-0.0063121834
-0.013237078
-0.018714767
-0.010009841
-0.00694154
-0.0029266439
0.0020105618
0.006346527
0.0090562823
0.0096184523
0.0079335309
0.0042963315
-0.00049529229
-0.0052112019
-0.0080639809
0.36104785
0.36804906
0.37795355
0.38853468
0.39672864
0.3994441
0.39554938
0.38669804
0.37614473
0.36692145
0.3609454
0.35858103
0.36695849
0.37886926
0.39175483
0.40152927
0.40389263
0.39761572
0.38589184
0.37321478
0.36302255
0.35841365
0.35275322
0.36342567
0.38016668
0.39945534
0.41495294
0.4187819
0.40856581
0.39034637
0.37177419
0.35789996
0.35272281
0.34273624
0.3578779
0.38287579
0.4121923
0.43256395
0.43750102
0.42490963
0.3986405
0.37010127
0.349743
0.34269865
0.32500279
0.34751673
0.38481139
0.42540131
0.46299121
0.47306848
0.4462082
0.40639089
0.36602719
0.33529698
0.32503162
0.29486565
0.32700787
0.38522624
0.47104283
0.54430616
0.56034572
0.51351126
0.42615863
0.35419376
0.30935267
0.29559573
0.24645715
0.28644618
0.36350688
0.45175982
0.51374647
0.52913226
0.48769512
0.41158121
0.32233332
0.2637078
0.24904225
0.17100318
0.20060302
0.22951704
0.25048621
0.31959318
0.34695817
0.28138269
0.2380986
0.21998068
0.18506746
0.17784504
0.063167836
0.041572971
-0.045366678
-0.072485759
0.080784574
0.14755513
-0.011673275
-0.077766482
0.0057205902
0.059836861
0.07847956
-0.065155618
-0.16348218
-0.35914493
-0.43263752
-0.17808363
-0.059929844
-0.34210146
-0.4261215
-0.25956545
-0.097856811
-0.039065981
-0.17966922
-0.32453523
-0.56828786
-0.75839284
-0.35909547
0.2519329
-0.37337559
-0.68137251
-0.4430954
-0.23248569
-0.14767506
-0.24162973
-0.36630358
-0.55736798
-0.81623766
-1.2221528
-1.3260426
-1.1739387
-0.6650815
-0.45745084
-0.29044193
-0.21625478
-0.24509123
-0.31089889
-0.3973504
-0.51045101
-0.68757677
-0.7495124
-0.59082933
-0.44862617
-0.35374286
-0.27309769
-0.23364363
-0.21327975
-0.2306456
-0.25052096
-0.27718875
-0.31603866
-0.32802515
-0.29586951
-0.26307693
-0.24128093
-0.22178067
-0.21395683
-0.17074059
-0.16299726
-0.1541061
-0.14965979
-0.15149621
-0.15257297
-0.1503483
-0.15176489
-0.15905111
-0.16821645
-0.17789192
-0.12970484
-0.11297094
-0.095127641
-0.082110727
-0.075377855
-0.074173168
-0.07829886
-0.088455815
-0.10429335
-0.12287442
-0.13876684
-0.094350737
-0.077090289
-0.059249781
-0.04595049
-0.038410448
-0.036932801
-0.041699392
-0.052393143
-0.068295591
-0.087039801
-0.1028519
-0.066181641
-0.051742879
-0.03694056
-0.025690177
-0.01922024
-0.017929168
-0.022030032
-0.031141286
-0.044475581
-0.0600459
-0.073226955
-0.044997613
-0.033809864
-0.022307266
-0.013396148
-0.0082347636
-0.0072206101
-0.010461538
-0.017714663
-0.028191513
-0.040235492
-0.050531195
-0.02928398
-0.020836438
-0.012085323
-0.0052099097
-0.0012304166
-0.00044847847
-0.0029436309
-0.0085113381
-0.016556382
-0.025612813
-0.033427851
-0.017169256
-0.011063805
-0.0045189668
0.0007102284
0.0037811738
0.00439228
0.0024748284
-0.0017749512
-0.0078211131
-0.01444974
-0.020104494
-0.0074634603
-0.0038767002
0.00076860547
0.0048506758
0.007429966
0.007967042
0.0063556016
0.0029155454
-0.0015822092
-0.0059623249
-0.0093540712
0.35963741
0.36463806
0.37234103
0.38068728
0.38711288
0.38922131
0.38616114
0.37925648
0.37100429
0.36389966
0.35981105
0.35706807
0.36250009
0.37146947
0.38119578
0.3884731
0.3902203
0.38561057
0.37683398
0.36727501
0.3596515
0.35728462
0.35150008
0.35753764
0.3697129
0.3837585
0.39468222
0.39736231
0.39028667
0.37721009
0.36366101
0.35382042
0.35144148
0.341084
0.34943906
0.36713984
0.38847109
0.40515864
0.40911241
0.39856123
0.37839822
0.3582077
0.3441419
0.34066291
0.32276332
0.33480815
0.3615679
0.39266426
0.4154483
0.42114824
0.40619673
0.37848227
0.34801214
0.32698194
0.32172005
0.29239843
0.3083867
0.34724033
0.3985692
0.44699221
0.45859224
0.42569284
0.37251534
0.3272004
0.29740966
0.29130826
0.24499933
0.26214051
0.31245092
0.3809117
0.43061249
0.44114535
0.41089025
0.34732415
0.28570444
0.24923457
0.24367684
0.17439277
0.18308033
0.2154503
0.23234924
0.24259707
0.24751025
0.23740282
0.22846605
0.20107948
0.17349766
0.1732693
0.077364465
0.058058186
0.012650458
-0.062578807
-0.078579834
-0.072677894
-0.078941278
-0.027490763
0.044784646
0.06447389
0.07794596
-0.036644111
-0.10074228
-0.24246114
-0.39099046
-0.43555153
-0.43413293
-0.4284634
-0.32485449
-0.15996113
-0.06656511
-0.03246453
-0.1424907
-0.2368155
-0.41990431
-0.61145887
-0.73940277
-0.75288682
-0.68293881
-0.51994868
-0.32050372
-0.18363541
-0.13497575
-0.21047334
-0.29451522
-0.43833066
-0.5948224
-0.73316436
-0.85489059
-0.66351259
-0.51608732
-0.36296259
-0.24689747
-0.20259314
-0.22926929
-0.27550382
-0.34502855
-0.41524055
-0.47571553
-0.49177051
-0.44819309
-0.38043643
-0.31021421
-0.24948314
-0.22445861
-0.21187797
-0.22219787
-0.23883078
-0.25487502
-0.26938291
-0.27330488
-0.26246695
-0.24717417
-0.23120091
-0.21570966
-0.21071464
-0.17767734
-0.16726365
-0.1590491
-0.15289932
-0.1503391
-0.14996257
-0.15129949
-0.1559212
-0.16357702
-0.17142878
-0.17879805
-0.13939688
-0.12134913
-0.1049615
-0.092256547
-0.085040235
-0.083637615
-0.088118677
-0.098366233
-0.11338649
-0.12944192
-0.14154898
-0.10363888
-0.085506738
-0.069036924
-0.056337347
-0.04898431
-0.04754302
-0.052147697
-0.062429025
-0.077442271
-0.093828053
-0.10604654
-0.07386549
-0.058669693
-0.045064227
-0.034481959
-0.028271974
-0.027052435
-0.030948986
-0.039588591
-0.052050595
-0.065687791
-0.076251912
-0.051036909
-0.0390821
-0.028619547
-0.020350812
-0.015445422
-0.014478536
-0.017564641
-0.024358164
-0.034026848
-0.044545029
-0.053199466
-0.033943938
-0.024748507
-0.016899515
-0.010550491
-0.0067818019
-0.0060407978
-0.0083994633
-0.013624674
-0.020931847
-0.028820786
-0.035643822
-0.020617426
-0.013910037
-0.0081423478
-0.0033610927
-0.00047968941
9.6100476e-05
-0.0016968416
-0.0056307374
-0.01107536
-0.016745451
-0.021758376
-0.0097062945
-0.0057065844
-0.001872929
0.0016395767
0.0038920773
0.0043560283
0.002948697
-2.3330308e-05
-0.0038451662
-0.0073195485
-0.010365773
0.35802311
0.36083094
0.36580913
0.37144166
0.37584824
0.37727825
0.3751484
0.37049682
0.365091
0.36064895
0.35616151
0.35788694
0.36350942
0.36978828
0.37453106
0.37568844
0.37270637
0.36703266
0.36098187
0.35803265
0.35030161
0.35205155
0.35900606
0.36758503
0.37434387
0.37604636
0.37170939
0.36364854
0.35547913
0.35233213
0.33890548
0.34173104
0.35152056
0.3639875
0.37402817
0.37656585
0.3700418
0.35820572
0.34647995
0.34229711
0.3194659
0.32328909
0.33780319
0.35664749
0.37164413
0.37526983
0.36564993
0.34787082
0.33033662
0.32437144
0.28806686
0.29219234
0.31256013
0.34006362
0.36342816
0.36931228
0.35344576
0.32679637
0.30183377
0.29418701
0.24003756
0.24276298
0.26720144
0.30313102
0.33472828
0.34224897
0.32115853
0.28508773
0.25390769
0.24650067
0.17025414
0.16788792
0.18716741
0.21068088
0.2228729
0.22499867
0.21880061
0.2006101
0.17649816
0.17490976
0.076637035
0.063670161
0.056125093
0.02477288
-0.011197201
-0.019141715
0.0048077945
0.044430565
0.062131122
0.075996522
-0.031501302
-0.059532141
-0.1131303
-0.21371422
-0.29424808
-0.31103369
-0.2603165
-0.16012791
-0.079023281
-0.040224086
-0.13158396
-0.17043679
-0.25645607
-0.38699323
-0.4867548
-0.50874818
-0.44330287
-0.32046167
-0.20331577
-0.14777102
-0.19812324
-0.23360653
-0.31177989
-0.41385405
-0.49159911
-0.50860781
-0.45693569
-0.36273631
-0.26510668
-0.21577179
-0.22035545
-0.24103349
-0.28496509
-0.33381652
-0.36841021
-0.37587529
-0.35300191
-0.30988338
-0.2597708
-0.2328604
-0.20814893
-0.21287438
-0.22473224
-0.23642038
-0.24405449
-0.24558206
-0.24047538
-0.23079977
-0.21804257
-0.2126077
-0.17784477
-0.17214803
-0.16611371
-0.16056632
-0.15704287
-0.15623568
-0.15836211
-0.16321068
-0.16927913
-0.17615209
-0.14152664
-0.13152714
-0.11902502
-0.10778143
-0.10094835
-0.099507076
-0.10377134
-0.1131131
-0.12572007
-0.13687321
-0.10637173
-0.09599458
-0.08322142
-0.071857036
-0.065054214
-0.063648054
-0.067931406
-0.077267986
-0.090111256
-0.10120888
-0.076603999
-0.06738185
-0.056789084
-0.047421418
-0.041790867
-0.040621697
-0.04419276
-0.051926343
-0.062557425
-0.071697955
-0.053651489
-0.045738349
-0.037612736
-0.03044563
-0.026090408
-0.025171376
-0.027949266
-0.033917744
-0.042033356
-0.048982525
-0.036242183
-0.029737911
-0.023610278
-0.018254108
-0.014957799
-0.014250146
-0.016360663
-0.020841043
-0.026863635
-0.032057122
-0.022277242
-0.017474527
-0.013102892
-0.0091338952
-0.0066513735
-0.0061266624
-0.0076913499
-0.011015553
-0.015358198
-0.019044116
-0.010420149
-0.0077025213
-0.0052257403
-0.0025571427
-0.00079024766
-0.00041601413
-0.0015279865
-0.0038221279
-0.0065548959
-0.0083690318
0.35838594
0.36051017
0.36355804
0.36609867
0.36693173
0.36566854
0.36306557
0.36027178
0.35865986
0.35608384
0.35743677
0.36069815
0.36331427
0.36405769
0.36234844
0.35923758
0.35786397
0.3565637
0.350264
0.35156417
0.35555601
0.35896237
0.36002793
0.35773241
0.35372831
0.35231948
0.35083924
0.33885249
0.34096898
0.34659724
0.35144378
0.35289261
0.34962302
0.34401237
0.34222946
0.33948453
0.31932107
0.32213989
0.33048755
0.33774043
0.33977074
0.33486585
0.32666996
0.32408344
0.32002259
0.28793524
0.29073527
0.30234616
0.31292244
0.31566105
0.30848172
0.29687476
0.29412866
0.28872974
0.239748
0.24123713
0.25503605
0.26832308
0.27183548
0.26242418
0.24845444
0.2463893
0.24045329
0.16995056
0.16681235
0.1775163
0.18855411
0.19147623
0.18386049
0.17281486
0.17470107
0.1701632
0.076424937
0.0637163
0.061233896
0.05587007
0.054050998
0.05885827
0.06395001
0.075882576
0.076945034
-0.031863153
-0.056815468
-0.082726005
-0.11290299
-0.12114772
-0.098669436
-0.067115888
-0.040435112
-0.030804948
-0.13189885
-0.16514009
-0.20856422
-0.25476702
-0.26720783
-0.23307781
-0.18417149
-0.14819052
-0.13035211
-0.19823654
-0.22812132
-0.26911967
-0.30962962
-0.32007186
-0.2906099
-0.24719353
-0.21627805
-0.19669787
-0.22053084
-0.23748916
-0.2614343
-0.28312848
-0.2886444
-0.27273491
-0.24929403
-0.23315406
-0.21934225
-0.20820255
-0.21158961
-0.21846847
-0.22430181
-0.22565183
-0.2210023
-0.21505001
-0.21262115
-0.20746286
-0.17770568
-0.17231102
-0.16916087
-0.16672194
-0.16595574
-0.16735001
-0.17065571
-0.1760331
-0.17781426
-0.14155443
-0.13243562
-0.12541129
-0.11999344
-0.11864842
-0.12218508
-0.12882935
-0.13677933
-0.1420114
-0.10645163
-0.097145214
-0.089791764
-0.084239141
-0.082952031
-0.086594413
-0.093439572
-0.10120317
-0.10733409
-0.076435365
-0.068490565
-0.062337736
-0.057761311
-0.056692926
-0.059719984
-0.065416099
-0.07174531
-0.077398667
-0.053187878
-0.046665685
-0.041942392
-0.038450212
-0.037610212
-0.03993223
-0.044294627
-0.049042089
-0.053974659
-0.035741882
-0.030437848
-0.02686053
-0.024256496
-0.023622234
-0.025340315
-0.028597244
-0.032106569
-0.036393655
-0.021863511
-0.017980088
-0.01537748
-0.013488291
-0.013027495
-0.014252705
-0.016586255
-0.019127957
-0.022660793
-0.0099716748
-0.0079080736
-0.0065765629
-0.0053779349
-0.0051009967
-0.0058680911
-0.0072214551
-0.0084949279
-0.011106166
0.36121986
0.35920512
0.3599874
0.36034626
0.35971074
0.35895468
0.3562602
0.35687426
0.35776836
0.35738083
0.35763582
0.35677683
0.35040864
0.35142615
0.35251943
0.35145718
0.35236634
0.35115395
0.33910487
0.3408312
0.34264337
0.34070328
0.34236971
0.34029186
0.31984027
0.32235722
0.325107
0.3218517
0.3244606
0.32132198
0.2888887
0.29233062
0.2960681
0.29055653
0.29492268
0.29080744
0.24116054
0.24510183
0.2497666
0.24147634
0.24793538
0.24303159
0.17134824
0.17475499
0.17893476
0.16769874
0.17690072
0.1725098
0.077450733
0.078462675
0.079081676
0.065094996
0.077629079
0.077426431
-0.030993697
-0.034469178
-0.040582061
-0.054722889
-0.040233096
-0.033531874
-0.13211514
-0.13984203
-0.15172114
-0.16190098
-0.14915218
-0.13609963
-0.19921755
-0.2081866
-0.2210228
-0.22491733
-0.21746333
-0.2035325
-0.22167005
-0.22838387
-0.23687163
-0.23494224
-0.23398562
-0.22455491
-0.20901803
-0.2122669
-0.21509561
-0.21015145
-0.21344552
-0.20992577
-0.17804417
-0.1785543
-0.17775567
-0.17221546
-0.17715482
-0.17800685
-0.14159657
-0.14063238
-0.13830204
-0.13332776
-0.13819501
-0.1409737
-0.10662646
-0.10520748
-0.1024377
-0.098492117
-0.10253992
-0.10568763
-0.077005586
-0.075537857
-0.072864508
-0.069863677
-0.072985204
-0.07584388
-0.053966482
-0.052488807
-0.050159893
-0.047828688
-0.05027411
-0.052701552
-0.036325593
-0.035046557
-0.033132522
-0.031304886
-0.033214247
-0.03517446
-0.022260376
-0.021438595
-0.019979098
-0.018585218
-0.02000532
-0.021435081
-0.010467433
-0.010429926
-0.0094216959
-0.0080242266
-0.0093342063
-0.010168817
0.36171921
0.35935315
0.35762399
0.3579218
0.35976999
0.36032567
0.35805732
0.35867931
0.35919109