/*--------------------------------*- C++ -*----------------------------------*\
| =========                 |                                                 |
| \\      /  F ield         | OpenFOAM: The Open Source CFD Toolbox           |
|  \\    /   O peration     | Version:  2406                                  |
|   \\  /    A nd           | Website:  www.openfoam.com                      |
|    \\/     M anipulation  |                                                 |
\*---------------------------------------------------------------------------*/
FoamFile
{
    version     2.0;
    format      ascii;
    arch        "LSB;label=32;scalar=64";
    class       surfaceScalarField;
    location    "50";
    object      phi;
}
// * * * * * * * * * * * * * * * * * * * * * * * * * * * * * * * * * * * * * //

dimensions      [0 3 -1 0 0 0 0];

oriented        oriented;

internalField   nonuniform List<scalar> 
214131
(
-3.3281165e-06
0.00099035683
-0.00013507684
-5.7548226e-06
1.2140452e-05
0.0020782883
0.00011822274
-0.0012137804
2.9413554e-07
-3.5711251e-06
0.001217099
-0.002386747
-4.7185792e-08
2.3601335e-07
-1.0159525e-05
0.0023968232
-0.0012225653
-4.9314604e-07
0.001224881
-1.844047e-06
-0.002409076
2.5119193e-07
-8.0791792e-08
0.0024150664
-6.0700269e-06
-0.0012347522
-1.0029231e-06
0.0012391426
-3.3955141e-06
-0.0024329931
3.7825023e-07
1.9068161e-08
0.0024427953
-1.0162486e-05
-0.0012565673
-1.807575e-06
0.0012638629
-5.5232185e-06
-0.002474338
5.4854001e-07
1.7185766e-07
0.0024899171
-1.6271661e-05
-0.0012914248
-2.8212102e-06
0.0013027232
-8.4703393e-06
-0.0025404889
7.8801933e-07
2.5095038e-07
0.0025638825
-2.4678077e-05
-0.0013442519
-4.1259312e-06
0.0013607823
-1.2420546e-05
-0.0026412432
1.2424202e-06
3.5782321e-07
0.002675242
-3.5834881e-05
-0.0014189425
-5.5501953e-06
0.001441131
-1.677162e-05
-0.0027849481
1.5564653e-06
5.0893275e-07
0.0028302625
-4.8124701e-05
-0.0015150142
-6.9607848e-06
0.0015413685
-1.9562823e-05
-0.0029711629
1.9163159e-06
7.2596095e-07
0.0030252882
-5.7409836e-05
-0.0016216641
-7.6222874e-06
0.0016476094
-1.8468771e-05
-0.0031803909
2.1453396e-06
5.9459824e-07
0.0032339615
-5.7010873e-05
-0.0017176435
-7.0850146e-06
0.0017372563
-1.2640711e-05
-0.0033702304
2.413263e-06
-1.5564503e-07
0.0034110332
-4.3486851e-05
-0.001781665
-5.6559371e-06
0.001791328
-4.1192462e-06
-0.0034976483
2.5477967e-06
-1.2122226e-06
0.0035182416
-2.196844e-05
-0.0018057817
-4.1330357e-06
0.0018063301
3.5793057e-06
-0.0035457226
2.4115776e-06
-1.8870756e-06
0.0035478693
-2.3653102e-06
-0.0017982242
-3.0115293e-06
0.0017931159
8.1043789e-06
-0.0035311843
2.4001497e-06
-2.4059573e-06
0.0035222304
9.3958124e-06
-0.0017733817
-2.0986628e-06
0.0017659572
9.5270634e-06
-0.0034825069
2.286493e-06
-2.6798622e-06
0.0034688725
1.4202331e-05
-0.0017424718
-1.5208663e-06
0.0017345797
9.4291596e-06
-0.0034214547
2.3576945e-06
-2.7746529e-06
0.0034070924
1.4967636e-05
-0.0017112774
-1.3751039e-06
0.0017038164
8.8528131e-06
-0.0033599264
2.5879661e-06
-2.8490825e-06
0.0033463055
1.3983796e-05
-0.001682337
-1.6639708e-06
0.001675436
8.5747994e-06
-0.003302351
3.0945959e-06
-3.1172959e-06
0.0032898639
1.2622801e-05
-0.0016549944
-2.4827957e-06
0.0016481544
9.3273615e-06
-0.0032486895
3.9075788e-06
-3.7323829e-06
0.0032368709
1.171833e-05
-0.0016272532
-3.8093122e-06
0.001620151
1.0919575e-05
-0.0031967214
5.2038024e-06
-4.8697969e-06
0.0031849661
1.1498361e-05
-0.0015985622
-5.2492209e-06
0.001591284
1.2536787e-05
-0.0031442463
6.9339162e-06
-6.53876e-06
0.0031317869
1.2115397e-05
-0.0015650503
-7.4523945e-06
0.0015450334
2.7482531e-05
9.5121801e-06
-0.0030773151
-9.6303126e-06
0.0030366716
4.0792609e-05
-9.5339494e-06
-9.6636084e-05
2.5511968e-05
0.0033565237
1.400596e-05
-2.0821265e-05
-1.6009448e-05
1.4138821e-05
0.0029646859
3.9365694e-05
-2.9654183e-05
-9.7632791e-06
6.9914479e-06
0.0028591817
2.644963e-05
-1.4032074e-05
7.3254229e-08
-2.0820731e-06
0.002794604
1.313835e-05
-3.6414432e-05
9.8365885e-06
-1.1630668e-05
0.0028853109
3.2588966e-05
-1.5242062e-05
1.6053081e-05
-1.587471e-05
0.0030172052
3.6471102e-05
9.6655777e-05
9.2239864e-05
0.002281587
6.2112137e-05
-0.0033930665
6.5253333e-07
8.3527737e-07
-4.1199382e-07
-2.0808854e-07
0.0033927884
-3.700891e-06
-0.011460482
-8.0540929e-06
3.5339895e-05
0.011359302
0.00011192917
-1.3759007e-05
1.0800935e-06
5.3921671e-06
-2.5606147e-05
-1.8752684e-06
3.4567234e-06
-1.7054474e-05
-0.011296408
-3.1801888e-05
1.8263165e-05
0.011257649
5.8124277e-05
-9.9039695e-06
9.8475488e-06
1.425756e-05
3.0384533e-05
-0.011115435
6.0411978e-07
-1.8765985e-05
0.011084403
2.1966686e-05
-1.9890375e-05
-0.011438077
-3.5963934e-05
0.011369951
9.8135714e-05
3.3187373e-05
-1.7988508e-05
7.5648754e-06
6.1606726e-06
-0.002853312
-2.7255766e-06
8.3335644e-06
-5.2648747e-06
1.9054922e-05
0.0028345454
-0.0024350505
-5.2182274e-07
1.1220796e-06
-2.0664562e-06
0.0024367141
1.8205578e-06
-0.0034007888
2.0500723e-06
-3.2410941e-06
0.0034063927
-5.6687254e-06
1.0640441e-05
4.4056424e-06
-0.01132244
-1.5020012e-05
0.011328923
-5.4280624e-05
8.014167e-06
1.2088776e-05
1.496819e-05
6.1530132e-06
-3.4950947e-06
1.2894823e-05
1.0756019e-05
1.0624025e-05
-0.011232394
-5.3867007e-06
0.011239603
-7.7831331e-05
1.0124562e-05
2.2430828e-05
2.4983052e-05
7.1814043e-05
-0.011076045
1.4550822e-06
3.3945687e-06
0.011089912
-8.7319233e-05
9.3365714e-06
-0.011334772
1.3265664e-05
0.01133967
-6.4974263e-05
-7.9151214e-06
9.9419349e-06
2.0076144e-05
1.8381559e-05
7.2786015e-06
-0.0028290673
-3.9143601e-06
3.794062e-06
0.0028299115
-7.4365249e-06
-0.0024448894
-1.4562168e-06
7.5642294e-07
0.0024494667
-3.6918811e-06
3.5963282e-06
-0.0034317643
3.96695e-06
-6.7059816e-06
0.0034433614
-1.1958885e-05
2.2965857e-05
1.168207e-05
-0.011364697
-4.7643474e-05
0.011425607
-0.00015585667
2.2396331e-05
2.3408736e-05
2.6301267e-05
1.2385373e-05
6.1744609e-06
1.9289248e-05
3.0120137e-05
3.7201475e-05
-0.01127025
-2.0246233e-05
0.011323956
-0.00020802334
2.9841475e-05
3.8512385e-05
4.1456653e-05
0.00015080501
-0.01112206
2.2402641e-06
1.6637837e-05
0.011175176
-0.000219748
2.6974994e-05
-0.011372379
4.4511089e-05
0.011428912
-0.00018629116
-3.335076e-05
2.7055028e-05
3.4284009e-05
3.2213172e-05
1.5559757e-05
-0.0028484195
-1.0962973e-05
9.1805203e-06
0.0028558967
-2.0958967e-05
-0.0024690592
-3.0455086e-06
1.6057341e-06
0.0024776437
-7.1454506e-06
5.8213829e-06
-0.0034888003
6.4572636e-06
-1.1391727e-05
0.0035083009
-2.023309e-05
3.9384687e-05
2.1141151e-05
-0.011513035
-8.5540424e-05
0.01162847
-0.00027679203
4.0481387e-05
3.8860281e-05
4.2770636e-05
2.0735281e-05
1.6601432e-05
2.8366702e-05
5.5459564e-05
6.7070936e-05
-0.011401195
-3.6636485e-05
0.011506361
-0.00037334224
5.5669535e-05
6.2571446e-05
6.6174276e-05
0.00026106571
-0.011249973
3.0880334e-06
3.1245394e-05
0.011352141
-0.00039484361
4.9270851e-05
-0.011511192
8.0711878e-05
0.011620887
-0.00033371939
-6.1740275e-05
4.8510999e-05
5.521762e-05
5.2427169e-05
2.6435753e-05
-0.0028914414
-1.9935442e-05
1.5999384e-05
0.0029061381
-3.7445375e-05
-0.0025116016
-5.2445113e-06
2.9181056e-06
0.0025256695
-1.1944584e-05
8.8589421e-06
-0.0035815597
9.8511539e-06
-1.7846947e-05
0.0036119654
-3.17216e-05
6.1749856e-05
3.3906458e-05
-0.011779689
-0.00013727402
0.011970968
-0.00044372543
6.4845201e-05
6.0059988e-05
6.5856651e-05
3.2184382e-05
3.0193035e-05
4.1225041e-05
9.0508319e-05
0.00010748781
-0.011645047
-5.8966541e-05
0.011824472
-0.00060739976
9.135363e-05
9.7109495e-05
0.00010180754
0.00041619847
-0.011486492
4.2707792e-06
5.0933188e-05
0.011661348
-0.00064452689
7.984059e-05
-0.011766337
0.00013028477
0.011951012
-0.00053989158
-0.00010023118
7.8113754e-05
8.5011377e-05
8.1139576e-05
4.1570017e-05
-0.0029639635
-3.2383681e-05
2.5620115e-05
0.0029885781
-6.0110288e-05
-0.0025796041
-8.3429264e-06
4.68903e-06
0.0026015234
-1.8637955e-05
1.245288e-05
-0.0037225908
1.4971758e-05
-2.6199073e-05
0.0037674132
-4.6416272e-05
9.0979477e-05
5.0223736e-05
-0.012212182
-0.00020517073
0.012507075
-0.00066605146
9.6476175e-05
8.7995387e-05
9.6448652e-05
4.7085904e-05
4.7338133e-05
5.8292786e-05
0.00013714501
0.00016084043
-0.012053861
-8.9109302e-05
0.012342487
-0.00092992165
0.00013878299
0.00014354232
0.00014978353
0.00062423644
-0.011885845
5.9848618e-06
7.7306533e-05
0.012170675
-0.00099211466
0.00012030948
-0.012187129
0.00019540844
0.012479105
-0.00081983633
-0.00015079052
0.00011680521
0.00012484881
0.00011889912
6.1386587e-05
-0.0030774288
-4.8365187e-05
3.8146613e-05
0.0031150618
-8.9835434e-05
-0.0026825409
-1.27646e-05
7.1291993e-06
0.0027143068
-2.7113599e-05
1.6105841e-05
-0.0039235619
2.0311151e-05
-3.5471156e-05
0.0039841114
-6.2684362e-05
0.00012336551
6.8145566e-05
-0.01286657
-0.00028148084
0.013286702
-0.00092097976
0.00013184336
0.00011867174
0.00013043501
6.3570211e-05
6.6502116e-05
7.7632465e-05
0.00019069381
0.00022207762
-0.012700074
-0.00012307755
0.013127789
-0.0013109197
0.00019357828
0.00019532827
0.00020368418
0.00086330877
-0.012524704
8.4236294e-06
0.00010753279
0.012951054
-0.0014070669
0.00016637826
-0.0128395
0.00026904367
0.013265223
-0.0011473519
-0.00020717476
0.00016037474
0.00016939452
0.00016060859
8.3654869e-05
-0.0032433689
-6.5758083e-05
5.1829907e-05
0.0032956691
-0.00012341133
-0.0028277231
-1.7552211e-05
9.8494615e-06
0.0028705187
-3.6382599e-05
1.844087e-05
-0.0041833131
2.4083921e-05
-4.2209562e-05
0.0042557707
-7.4622276e-05
0.00014726174
8.1219331e-05
-0.01376448
-0.00034102082
0.014288586
-0.0011232695
0.00015828124
0.00014003776
0.00015462939
7.5118828e-05
8.0640794e-05
9.1609963e-05
0.00023119615
0.00026901852
-0.013633211
-0.00015031105
0.014219969
-0.0016569657
0.00023568914
0.0002311226
0.00024164581
0.0010489394
-0.013464481
9.6187193e-06
0.00012902509
0.014069033
-0.0018055543
0.00020134466
-0.013758157
0.00032383078
0.014315321
-0.0014274008
-0.00025183113
0.00019301325
0.00020096753
0.00018983211
0.00010101653
-0.0034642131
-7.8335889e-05
6.1686943e-05
0.0035272738
-0.00014958801
-0.0030141874
-2.1162408e-05
1.2145924e-05
0.003065194
-4.3303906e-05
1.7139263e-05
-0.0044755977
2.4112288e-05
-4.2152634e-05
0.0045482236
-7.3608325e-05
0.00014419136
7.9016542e-05
-0.014848482
-0.00034936843
0.01541079
-0.0011412926
0.00015603567
0.00013645445
0.0001519413
7.4008638e-05
7.9822034e-05
9.2893383e-05
0.00022915132
0.00028221412
-0.0148781
-0.00015792781
0.01554056
-0.0017311178
0.00023534289
0.00022622366
0.00023817639
0.0010680728
-0.014749546
1.2018786e-05
0.00013115642
0.015413078
-0.0018922567
0.00019972359
-0.014930217
0.00033097356
0.015556967
-0.0014835434
-0.0002632885
0.00019065811
0.00019753671
0.00018567625
0.00010191868
-0.0037179408
-7.6148007e-05
6.0712691e-05
0.0037794809
-0.00015015235
-0.0032219963
-2.1153831e-05
1.2629308e-05
0.0032728537
-4.3329175e-05
1.1145039e-05
-0.0047440594
1.9401743e-05
-3.3182417e-05
0.0047999753
-5.4442046e-05
0.00010537891
5.608746e-05
-0.015937475
-0.00028321371
0.016371051
-0.00084878912
0.00011620996
9.9794545e-05
0.00011418146
5.429764e-05
6.3068969e-05
7.9818761e-05
0.00016968559
0.00023796934
-0.016119394
-0.00014201993
0.016533684
-0.0012179407
0.00017734784
0.00016861283
0.00018065405
0.00081497507
-0.01597316
2.2219849e-05
9.8599485e-05
0.016352249
-0.0013273398
0.00014906618
-0.016130126
0.0002621842
0.016571298
-0.0010807275
-0.00020818792
0.00014045375
0.00014869198
0.00013739866
7.9071486e-05
-0.0039539548
-5.3085746e-05
4.4698501e-05
0.0039980173
-0.00011586693
-0.0034113206
-1.6423725e-05
1.0737181e-05
0.0034506497
-3.3781445e-05
2.2221501e-06
-0.0049269766
1.2078049e-05
-1.8859718e-05
0.0049549239
-2.3716684e-05
4.4541278e-05
2.2334303e-05
-0.016675646
-0.00016486473
0.01683405
-0.0003301296
5.3137563e-05
4.2812258e-05
5.4637433e-05
2.4708602e-05
3.6241675e-05
5.4476275e-05
7.3652665e-05
0.0001440381
-0.016759004
-0.00010035927
0.016791347
-0.00039500106
8.0574125e-05
7.5175403e-05
8.4513033e-05
0.0003584979
-0.01653395
3.8126968e-05
2.918645e-05
0.016519231
-0.00041630512
6.9247186e-05
-0.016845461
0.00013243703
0.0169445
-0.00040975119
-9.0752745e-05
6.2181146e-05
7.1961506e-05
6.2650108e-05
4.092764e-05
-0.0041162279
-1.8608868e-05
1.9658338e-05
0.0041342445
-5.996327e-05
-0.0035400723
-8.8888293e-06
7.1266494e-06
0.0035602744
-1.78114e-05
-5.8536937e-06
-0.0049983929
5.355849e-06
-5.5015427e-06
0.0050000083
4.4410882e-06
-9.3913353e-06
-3.2681313e-06
-0.016857834
-4.5822657e-05
0.016769112
0.00012066685
-4.0314829e-06
-7.300201e-06
6.3435559e-07
2.4325742e-06
8.5504497e-06
2.6514802e-05
-1.5040447e-05
5.2355542e-05
-0.016666435
-6.08179e-05
0.016426114
0.00029073798
-1.2036724e-05
-9.6562429e-06
-5.4101285e-06
-5.0955291e-05
-0.016350855
5.3978678e-05
-3.8925548e-05
0.016075525
0.0003114269
-5.7052381e-06
-0.016888479
-4.2935262e-06
0.016713295
0.00017415806
2.7124275e-05
-9.5669271e-06
2.8460738e-07
-5.2850214e-06
5.0803484e-06
-0.0041783188
8.6771027e-06
-1.9372909e-06
0.0041726423
-5.5658194e-06
-0.0035908333
-1.9702051e-06
3.274116e-06
0.0035928897
-2.5214792e-06
-1.0589355e-05
-0.0049791073
1.4744804e-06
2.7792483e-06
0.0049642838
2.1565583e-05
-4.0932766e-05
-1.4116831e-05
-0.016593132
2.4443597e-05
0.016359425
0.00039363318
-3.9767734e-05
-3.7357333e-05
-3.4066531e-05
-8.0555958e-06
-1.267666e-05
4.5232184e-06
-6.6288509e-05
-3.2123456e-07
-0.016114475
-3.6280742e-05
0.015768195
0.00063641264
-6.7974827e-05
-5.8582727e-05
-5.8936382e-05
-0.00028985241
-0.015741014
6.7086913e-05
-8.8645566e-05
0.015383855
0.00067112488
-5.169361e-05
-0.016455617
-9.4248514e-05
0.01615025
0.00049142281
0.0001038208
-5.1390432e-05
-4.3911446e-05
-4.5252079e-05
-1.7924766e-05
-0.0041543505
2.2159629e-05
-1.3541504e-05
0.0041336619
3.0852422e-05
-0.0035785992
2.0950219e-06
5.0495342e-07
0.0035692556
7.6321395e-06
-1.2341614e-05
-0.0049093744
3.2008815e-07
5.7729143e-06
0.0048878469
2.8137145e-05
-5.2605914e-05
-1.4763944e-05
-0.016091204
4.9181001e-05
0.015809022
0.00049679793
-5.5264796e-05
-4.977802e-05
-5.0242698e-05
-1.018162e-05
-2.282378e-05
-6.2068856e-06
-8.6689038e-05
-1.8406915e-05
-0.015414239
-2.9642089e-05
0.015071341
0.00072960991
-9.0879657e-05
-7.8405712e-05
-8.0865883e-05
-0.00038772021
-0.015026161
7.7227908e-05
-0.00011608564
0.014684832
0.00077034231
-6.9525175e-05
-0.015823442
-0.00013885993
0.015497121
0.00058391369
0.00014251971
-6.628561e-05
-6.180415e-05
-6.0679448e-05
-2.8443576e-05
-0.0040765352
2.6001536e-05
-1.7233268e-05
0.0040486862
4.8190722e-05
-0.0035313087
3.5077053e-06
-1.1261843e-06
0.003516988
1.2559447e-05
-1.2260959e-05
-0.004822891
5.3238223e-07
5.4910753e-06
0.0048006166
2.8741151e-05
-5.3247957e-05
-1.1915838e-05
-0.015526844
4.7045994e-05
0.015255008
0.0004949806
-5.8165945e-05
-5.1087682e-05
-5.3591445e-05
-8.5229692e-06
-2.4323014e-05
-8.1795739e-06
-9.0901184e-05
-1.5624082e-05
-0.014749642
-3.354774e-05
0.014454572
0.00070036284
-9.579149e-05
-8.2802864e-05
-8.5488001e-05
-0.0003954095
-0.014366973
8.5431331e-05
-0.00012958515
0.014077477
0.00073063353
-7.248906e-05
-0.015182936
-0.00015517296
0.014889679
0.00056010919
0.00015766057
-6.7746037e-05
-6.4906446e-05
-6.2325237e-05
-3.139819e-05
-0.0039742128
2.6579131e-05
-1.7802674e-05
0.0039444731
5.2798707e-05
-0.0034714072
3.6567621e-06
-1.9562356e-06
0.0034561943
1.3848195e-05
-1.1342382e-05
-0.0047372418
1.3499038e-06
3.9083411e-06
0.0047162891
2.7197226e-05
-5.0487584e-05
-8.9810022e-06
-0.014998943
3.4229475e-05
0.014761651
0.00045311245
-5.6466729e-05
-4.8130805e-05
-5.1540606e-05
-5.604755e-06
-2.2284758e-05
-5.9753468e-06
-8.7477267e-05
-3.7618193e-06
-0.014187585
-4.1613329e-05
0.013948612
0.00062418502
-9.1961532e-05
-7.8831077e-05
-8.1019547e-05
-0.00036312441
-0.013816619
9.2180545e-05
-0.00013586832
0.013584634
0.00063959991
-6.9622099e-05
-0.014620185
-0.00015870703
0.014375949
0.00049712818
0.00016127702
-6.4511148e-05
-6.1586993e-05
-5.8701773e-05
-3.0598747e-05
-0.0038671524
2.6975514e-05
-1.8189806e-05
0.0038382083
5.1024806e-05
-0.0034115167
3.5531243e-06
-2.3181967e-06
0.0033972178
1.3265615e-05
-1.0522228e-05
-0.0046572563
2.6573029e-06
2.0768903e-06
0.0046376431
2.5623948e-05
-4.742004e-05
-6.1604327e-06
-0.014543936
1.8663904e-05
0.014345667
0.00040451956
-5.378578e-05
-4.4860728e-05
-4.835254e-05
-2.5663951e-06
-1.8960559e-05
-2.2747822e-06
-8.0760791e-05
1.102591e-05
-0.013736236
-5.1667882e-05
0.013548923
0.00053844325
-8.4756615e-05
-7.1408955e-05
-7.3059688e-05
-0.00032185745
-0.013379649
9.7611534e-05
-0.00013735939
0.013200304
0.00054161456
-6.3930978e-05
-0.014156201
-0.00015701231
0.013960271
0.00042488974
0.00015952178
-5.8907611e-05
-5.5236118e-05
-5.254481e-05
-2.8489638e-05
-0.003766089
2.7417013e-05
-1.9035554e-05
0.003739568
4.6857492e-05
-0.0033564309
3.6072252e-06
-2.5581759e-06
0.0033433861
1.2093021e-05
-1.0587368e-05
-0.0045816061
4.3953413e-06
4.5199643e-07
0.0045629772
2.4606639e-05
-4.4364842e-05
-3.126128e-06
-0.014166579
2.3905642e-06
0.014007209
0.00035546156
-5.0664956e-05
-4.2152931e-05
-4.4865504e-05
2.1285102e-07
-1.4941762e-05
2.1313e-06
-7.3329577e-05
2.6227697e-05
-0.013384765
-6.1980693e-05
0.013242777
0.0004562325
-7.6989071e-05
-6.3223255e-05
-6.42364e-05
-0.00028059599
-0.013043757
0.0001018685
-0.0001361203
0.012908809
0.00045063077
-5.7439955e-05
-0.013786509
-0.00015231926
0.013634709
0.00035427159
0.00015496281
-5.2792079e-05
-4.8039254e-05
-4.5901913e-05
-2.6256634e-05
-0.0036764713
2.7567147e-05
-2.0076424e-05
0.0036533851
4.2064911e-05
-0.0033058977
4.2008394e-06
-3.0066593e-06
0.0032936373
1.1099032e-05
-1.196422e-05
-0.0045095387
6.2708675e-06
-9.5612029e-07
0.0044918511
2.448749e-05
-4.1819734e-05
-2.4689574e-07
-0.013868269
-1.6110486e-05
0.013753201
0.0003024446
-4.7871188e-05
-3.9854075e-05
-4.0670839e-05
2.913329e-06
-1.0821516e-05
7.8498019e-06
-6.6689124e-05
4.2960324e-05
-0.013121937
-7.3076284e-05
0.013023358
0.00037541325
-6.9975813e-05
-5.453854e-05
-5.4724459e-05
-0.00024141018
-0.012793456
0.00010520824
-0.00013218392
0.012697892
0.000364856
-5.1519059e-05
-0.013504427
-0.00014383065
0.013397989
0.0002821969
0.00014687558
-4.7422574e-05
-4.0146407e-05
-3.8812589e-05
-2.4094278e-05
-0.0036012294
2.7661903e-05
-2.1089811e-05
0.0035819607
3.6989098e-05
-0.0032571844
5.7985318e-06
-3.8976718e-06
0.0032448888
1.0437727e-05
-1.3886046e-05
-0.0044416595
8.6116542e-06
-2.7502603e-06
0.0044254218
2.4358949e-05
-3.8711916e-05
3.5828663e-06
-0.013668386
-4.8641562e-05
0.013631025
0.00021103078
-4.5282009e-05
-3.5124228e-05
-3.1558247e-05
8.4385615e-06
-5.667155e-06
2.0005143e-05
-6.1229729e-05
7.2011369e-05
-0.012949701
-9.1911987e-05
0.012910539
0.00027080895
-6.4677431e-05
-4.191504e-05
-4.3153468e-05
-0.00020791484
-0.012621858
0.00010779599
-0.00011930628
0.012569189
0.00027295101
-4.6277122e-05
-0.013320315
-0.00012069695
0.013285895
0.00017323425
0.00012541407
-4.2632793e-05
-2.7269956e-05
-2.6588637e-05
-2.078252e-05
-0.003543477
2.6595017e-05
-2.098256e-05
0.0035294486
2.9332343e-05
-0.0032078329
8.066249e-06
-5.2100092e-06
0.0031954846
9.5163475e-06
-1.9609449e-05
8.7073533e-06
-0.0043822176
-1.5381292e-06
0.0043648416
2.9861524e-05
-2.885362e-05
2.0076567e-05
-0.0001128969
1.5716753e-05
-3.4381217e-05
-1.5970082e-05
8.4133649e-06
-0.013663528
0.0035166011
0.0034609769
0.0034060458
0.0033264768
3.1073555e-05
1.627034e-05
5.4481642e-05
-4.2603197e-05
0.00013417995
-0.0001220916
0.00016377605
0.003301052
0.0032456713
0.003119012
0.0031553612
-0.012883971
-5.7605513e-05
3.1699592e-06
-1.5364439e-05
-0.000199067
0.00011023241
-9.4451263e-05
0.00019854899
0.0031740243
0.0031963302
0.003085239
0.0030717767
-0.012542031
-1.821065e-05
7.0011812e-05
-6.6135708e-05
2.4708813e-05
-0.01328388
0.0033663205
0.0034009439
0.0032514638
0.0032060608
-1.8664901e-05
3.4532562e-05
3.3355204e-05
-1.5233826e-05
-0.0035318581
1.3188944e-05
-1.2118886e-05
0.0035545278
-8.4289317e-06
1.3605034e-05
-0.0031589825
-1.1571569e-05
0.003139761
1.7196695e-05
-2.0836286e-05
-2.2921992e-05
1.7215878e-05
0.00308667
1.6109022e-05
-3.5647029e-05
-2.6862491e-05
0.0028572538
2.1126354e-05
2.8111332e-05
-1.8168756e-05
-8.5619377e-06
0.0027805008
5.4283797e-06
9.4438409e-06
-5.6921931e-06
-1.7352616e-06
9.1385146e-07
0.002762516
1.8531559e-06
-2.3026578e-06
1.1313879e-08
-2.6135498e-07
0.0027591281
7.60346e-08
-7.752371e-06
1.7683234e-06
-2.3515947e-06
0.0027640707
3.0114271e-06
-2.308777e-05
8.5940346e-06
-1.1550768e-05
0.0027904798
1.2989728e-05
-3.4403176e-05
2.6857584e-05
-2.8846537e-05
0.0028998487
3.2844378e-05
-2.2603362e-05
2.3307506e-05
-3.010634e-06
0.003199454
2.757541e-05
-0.0028968866
-7.7725531e-08
6.3049287e-08
4.8570371e-06
5.1154912e-06
0.0028876194
-0.00010147189
-0.011362931
-7.8835933e-05
8.1219412e-05
0.011358317
0.00010811063
-0.01122739
-0.00010684038
-6.2285534e-05
4.30073e-05
0.011290031
6.9008909e-05
-0.011121069
-4.4371671e-05
-2.5345379e-05
1.1915044e-05
0.01116811
1.5840423e-05
-0.011093387
-2.168775e-05
9.9078963e-07
-1.2517873e-05
0.011130603
7.6430202e-07
-0.011164577
-7.6909797e-05
2.7370563e-05
-4.3384804e-05
0.011222258
4.0582917e-05
-0.0001229233
-0.01129681
6.4143684e-05
-8.1047457e-05
0.011349223
9.3696345e-05
-0.011527013
-2.6621515e-05
0.011433428
9.8531589e-05
7.9064931e-05
-8.5902162e-06
1.4100635e-06
-5.8383716e-07
-1.1976986e-05
-3.8561544e-05
-9.5180762e-07
6.2791686e-06
-0.003238558
7.6917317e-07
5.3315774e-07
8.508903e-07
8.5575914e-07
0.0032362312
4.3083454e-06
4.7668781e-06
-0.002886508
-6.232376e-06
0.0028901144
-5.8275964e-06
4.2194993e-05
3.2147554e-05
-0.011328508
-2.6261539e-05
0.01132297
-3.7603659e-05
5.4431554e-05
-0.011327183
2.275547e-05
-1.8775963e-05
0.011335684
-6.0244763e-05
8.6184957e-05
-0.011200646
1.6019953e-05
-8.363116e-06
0.011224104
-0.00011118408
9.9905297e-05
-0.011156996
1.9503637e-06
6.4623928e-06
0.011179847
-0.00012515973
6.8614062e-05
-0.011262546
-1.2307638e-05
1.7419387e-05
0.011282614
-8.7220667e-05
4.811057e-05
-0.011358011
-1.9505125e-05
2.5309022e-05
0.011355431
-4.406218e-05
7.3005111e-06
-0.011381805
0.011376722
-3.8031054e-05
-3.0655617e-05
1.0019482e-05
1.2871809e-05
1.1888185e-05
7.6423315e-06
1.1573104e-05
1.9471959e-05
-2.7797007e-06
1.9458206e-06
-0.003243766
-4.0618688e-06
1.6009789e-06
0.0032482843
-3.560257e-06
8.7827585e-06
9.6208972e-06
-0.0029097117
-1.4091657e-05
0.0029192468
-1.3332607e-05
0.00013299988
0.00010786682
-0.011344962
-0.00011731089
0.011394171
-0.00016776665
0.00020923398
-0.011347256
0.00011627933
-9.9997701e-05
0.011379085
-0.00025033996
0.0002687623
-0.011232277
7.5430672e-05
-4.0406103e-05
0.011251244
-0.00031646996
0.00028276238
-0.011188959
2.9927896e-06
3.6788342e-05
0.01120515
-0.00033241931
0.00024349996
-0.011291849
-7.0030803e-05
9.7334729e-05
0.011315949
-0.00028829942
0.00017493279
-0.011370956
-0.00011180749
0.00011532864
0.01141117
-0.00021162745
2.4747426e-05
-0.011407093
0.011462133
-0.00012748732
-0.00010555475
2.3042602e-05
2.4650805e-05
2.3519522e-05
1.9451082e-05
2.2057175e-05
3.0229744e-05
1.3313762e-05
3.5743313e-06
-0.0032733654
-8.6146253e-06
3.074074e-06
0.0032835911
-7.8670334e-06
1.4808454e-05
1.6032173e-05
-0.0029566297
-2.4121967e-05
0.0029733638
-2.2919166e-05
0.00023735942
0.00019426711
-0.011467621
-0.00021862536
0.011571455
-0.00031239785
0.00038705802
-0.011427363
0.00022148026
-0.00019546695
0.011503015
-0.00048147344
0.00050001832
-0.011279725
0.00014846781
-8.057209e-05
0.011328511
-0.00061026647
0.00052613947
-0.011228726
4.2740147e-06
7.467976e-05
0.011270523
-0.00064031372
0.00045308983
-0.011352611
-0.00014099421
0.00019107153
0.01141261
-0.0005568051
0.00031877454
-0.01147089
-0.00021562118
0.00021544421
0.011560573
-0.00040196332
4.3560816e-05
-0.011547474
0.011659226
-0.0002294694
-0.00019135449
3.9361901e-05
4.1433674e-05
3.8954264e-05
3.4294119e-05
3.6123966e-05
4.5798779e-05
3.0526639e-05
5.5662134e-06
-0.0033279468
-1.4812782e-05
5.080958e-06
0.003345472
-1.3442536e-05
2.3091468e-05
2.4708106e-05
-0.0030342255
-3.7832114e-05
0.0030606928
-3.6286983e-05
0.00037955351
0.00031136189
-0.011708742
-0.00035672895
0.011888649
-0.00051084646
0.00063532348
-0.011605838
0.00036691912
-0.00032931833
0.011752253
-0.0008119312
0.00083479507
-0.011398433
0.00025241113
-0.00013812529
0.01150797
-0.0010516627
0.00088259553
-0.0113315
6.1365163e-06
0.00012893926
0.011430718
-0.0011099932
0.00075127106
-0.0114966
-0.00024184354
0.00032253674
0.011621563
-0.00095063553
0.00051673068
-0.011679841
-0.00035912879
0.00035226286
0.011843762
-0.00066766345
6.8254195e-05
-0.011810516
0.0119986
-0.0003679117
-0.00030789934
6.1884494e-05
6.5200159e-05
6.0407105e-05
5.4842573e-05
5.5649463e-05
6.796842e-05
5.3187282e-05
8.3248724e-06
-0.0034162673
-2.3594809e-05
8.0896204e-06
0.0034439693
-2.110539e-05
3.3876127e-05
3.5909981e-05
-0.0031534056
-5.5614159e-05
0.0031921461
-5.3616348e-05
0.00056726096
0.00046574377
-0.012118597
-0.00054323827
0.012410154
-0.00078104131
0.00097917517
-0.011950063
0.00056827667
-0.00051967236
0.012220206
-0.0012949091
0.0013194584
-0.011668178
0.00040229355
-0.00022259042
0.011903124
-0.0017320095
0.0014044193
-0.011579072
8.6339059e-06
0.00020789526
0.011803944
-0.0018440863
0.0011754285
-0.011798289
-0.00038802286
0.0005094739
0.012047444
-0.0015442088
0.00078373334
-0.01205742
-0.00055891425
0.00053716645
0.012340444
-0.0010420869
0.00010000112
-0.012240149
0.012533589
-0.00055088225
-0.00046149729
9.0785959e-05
9.6241489e-05
8.7897506e-05
8.1081715e-05
8.0628546e-05
9.7027769e-05
8.2164956e-05
1.1965262e-05
-0.0035506338
-3.4763316e-05
1.1701528e-05
0.0035915376
-3.1092023e-05
4.5525007e-05
4.8241011e-05
-0.0033233499
-7.5306062e-05
0.0033757597
-7.2678468e-05
0.00078118176
0.00064108831
-0.012772961
-0.00076134883
0.013209121
-0.001100596
0.0013932248
-0.012577439
0.00081052018
-0.00075878525
0.013077873
-0.001950871
0.0019523558
-0.012277113
0.00060217724
-0.00034110896
0.012868302
-0.0028114057
0.0021069096
-0.012185263
1.1531557e-05
0.00031986366
0.012781693
-0.0030419859
0.0017085997
-0.012408009
-0.00058518622
0.00074524248
0.012965755
-0.0024331566
0.0010954935
-0.012700226
-0.00080038287
0.00075362006
0.013154521
-0.0015087309
0.00013534725
-0.01289547
0.013315252
-0.00075939723
-0.00063631795
0.0001227861
0.00013046468
0.00011772291
0.00011014409
0.00010786175
0.00012940923
0.00011442691
1.5705521e-05
-0.0037419727
-4.7103442e-05
1.5927677e-05
0.0037977159
-4.2123359e-05
5.3989928e-05
5.7313304e-05
-0.003544446
-8.9895347e-05
0.0036075297
-8.6659956e-05
0.00094439208
0.00077492005
-0.013724656
-0.00094853318
0.014324333
-0.0013850819
0.0017961601
-0.013773819
0.0010553727
-0.0010371287
0.014574936
-0.0026307431
0.0026308332
-0.0135835
0.00084064006
-0.0004838789
0.01421354
-0.003630464
0.0028597666
-0.013459298
3.3061302e-05
0.00042218724
0.014017637
-0.0038861935
0.0022785546
-0.013706767
-0.00079996285
0.0010119583
0.014441468
-0.0032393062
0.0013594622
-0.013747556
-0.0010463288
0.00094036982
0.014483823
-0.002003725
0.00016198527
-0.013802331
0.014332393
-0.00092083902
-0.0007719474
0.00014574185
0.00015514091
0.00013836913
0.00013109778
0.00012703688
0.00015343589
0.00013881504
1.8294156e-05
-0.0039892513
-5.6342429e-05
1.9078511e-05
0.0040564352
-5.0482769e-05
5.3023042e-05
5.698744e-05
-0.0037948024
-8.9539626e-05
0.0038576849
-8.5729389e-05
0.00094858743
0.00078287733
-0.015004615
-0.0009997355
0.015688482
-0.0014328283
0.0018403912
-0.015303732
0.0011121857
-0.0010496633
0.01580627
-0.0024196685
0.002555127
-0.014646417
0.00082915221
-0.00049619844
0.014850651
-0.0031036177
0.0027352489
-0.01437161
9.2116655e-05
0.00032292768
0.014519027
-0.0033091803
0.0022843691
-0.015004228
-0.00069693899
0.0009622382
0.015322965
-0.0028809355
0.00140743
-0.015274838
-0.0010740316
0.00098551815
0.015947773
-0.0020070656
0.0001609434
-0.014900741
0.015468919
-0.00093191096
-0.00078340116
0.000142193
0.00015214758
0.00013365898
0.00012840059
0.00012369648
0.0001524886
0.00013788537
1.7673385e-05
-0.0042671714
-5.619699e-05
1.9219921e-05
0.0043345721
-5.0483252e-05
3.9224596e-05
4.3624862e-05
-0.0040248006
-6.8132051e-05
0.0040723462
-6.3856195e-05
0.00070504044
0.0006017925
-0.016275718
-0.00074235158
0.016666881
-0.00096729873
0.0012085989
-0.016051016
0.00075830265
-0.0006785958
0.016041924
-0.0012878968
0.0014828212
-0.014858785
0.00053609976
-0.00036107145
0.014673563
-0.0014801937
0.0015817234
-0.014492198
0.00015885572
5.9498753e-05
0.014278781
-0.0015946601
0.0014247269
-0.015411911
-0.00028831508
0.00049776297
0.015285149
-0.0015155911
0.0010102674
-0.016396187
-0.00065321629
0.00069504805
0.016575003
-0.0012413103
0.0001226393
-0.016009537
0.016452215
-0.00070132144
-0.00059445186
0.00010233901
0.00011393689
9.575933e-05
9.2648355e-05
9.0114512e-05
0.0001196463
0.000103311
1.3154951e-05
-0.0045223264
-4.2664875e-05
1.4979291e-05
0.0045743894
-3.8973165e-05
1.7086934e-05
2.1714017e-05
-0.0041802866
-3.334559e-05
0.0042029781
-2.8608051e-05
0.00027509228
0.00027733517
-0.016839689
-0.00028842719
0.016799269
-0.00022840711
0.00026160912
-0.015824536
0.0002374994
-0.00018445881
0.01545154
5.5446371e-05
0.00014743726
-0.014312763
0.00016623569
-0.00018089977
0.013826749
0.00035083839
0.00014786096
-0.013896779
0.0002044457
-0.00020955329
0.013397208
0.00035406514
0.00028070188
-0.014974481
0.00016775958
-7.2826204e-05
0.014526836
6.9100738e-05
0.00035720058
-0.016513742
-6.6607033e-05
0.00019545663
0.016264521
-0.00024123139
6.177164e-05
-0.016764374
0.016910892
-0.00029192572
-0.00024598861
4.1404161e-05
5.4344405e-05
3.8733535e-05
3.7178074e-05
3.8392922e-05
6.5889546e-05
4.7814069e-05
6.0498171e-06
-0.0046963736
-2.0391164e-05
7.884116e-06
0.0047223238
-1.9843384e-05
-3.2615503e-06
1.6475941e-06
-0.0042394575
-1.9224701e-06
0.0042392914
3.6372919e-06
-0.00010659242
-1.8007681e-05
-0.016595339
8.6472691e-05
0.01628595
0.00034740198
-0.0004451434
-0.014992443
-0.00014949235
0.00014763915
0.014506354
0.00093402652
-0.00078048253
-0.013294854
-7.4230639e-05
-5.9628496e-05
0.012782202
0.0014282082
-0.00082311666
-0.012858571
0.00022310769
-0.00036842999
0.012347267
0.0014807154
-0.00054576018
-0.014017963
0.00045089724
-0.00044880044
0.013510742
0.0010518872
-0.00020003728
-0.015896269