/*--------------------------------*- C++ -*----------------------------------*\
| =========                 |                                                 |
| \\      /  F ield         | OpenFOAM: The Open Source CFD Toolbox           |
|  \\    /   O peration     | Version:  2406                                  |
|   \\  /    A nd           | Website:  www.openfoam.com                      |
|    \\/     M anipulation  |                                                 |
\*---------------------------------------------------------------------------*/
FoamFile
{
    version     2.0;
    format      ascii;
    arch        "LSB;label=32;scalar=64";
    class       volVectorField;
    location    "50";
    object      U;
}
// * * * * * * * * * * * * * * * * * * * * * * * * * * * * * * * * * * * * * //

dimensions      [0 1 -1 0 0 0 0];

internalField   nonuniform List<vector> 
71615
(
(0.00081360721 1.0011481 0.0025418026)
(-3.2107679e-05 1.000003 -5.7742392e-05)
(-7.9989099e-05 1.0040395 -8.2162987e-05)
(-8.6363545e-05 1.0021238 -0.00050354469)
(-0.00023221226 1.009456 -0.00033413951)
(-9.7576013e-05 1.0078875 -0.00089554646)
(-0.00045910491 1.0205066 -0.0006395659)
(-0.00011395959 1.0187533 -0.0016773271)
(-0.00083755041 1.0397406 -0.0010710422)
(-0.00013722481 1.0372726 -0.0030321437)
(-0.0013827991 1.0701193 -0.0015511168)
(-0.00022412191 1.0665309 -0.004754647)
(-0.0020097132 1.1158347 -0.0022246528)
(-0.00035111717 1.1108078 -0.0068830474)
(-0.0026783003 1.1798014 -0.0029738654)
(-0.00046866909 1.1732312 -0.0092326873)
(-0.0034055354 1.2609242 -0.0034904813)
(-0.00056426509 1.253 -0.010870467)
(-0.0039431849 1.3490239 -0.003356767)
(-0.00068500174 1.3405897 -0.010819677)
(-0.0040561703 1.4258781 -0.002405657)
(-0.00090799238 1.417541 -0.0082692054)
(-0.0037697889 1.4747062 -0.00098635494)
(-0.0010973635 1.4666918 -0.0039822276)
(-0.0032697443 1.4907348 0.00034226518)
(-0.0010758722 1.4828206 -4.6787812e-05)
(-0.002825874 1.4819774 0.0010631975)
(-0.0010764251 1.4742381 0.0021238724)
(-0.0022872228 1.4603898 0.0013147786)
(-0.0010617393 1.4527974 0.0027959981)
(-0.0018011385 1.4346258 0.0013333689)
(-0.0011020456 1.4270632 0.002815643)
(-0.0015153972 1.4090289 0.0013376407)
(-0.0012119034 1.4014648 0.0027896341)
(-0.001478213 1.3853699 0.0012878359)
(-0.0014226125 1.3776222 0.0028362139)
(-0.0018927025 1.3628192 0.0013096181)
(-0.0017931703 1.3553061 0.0027384118)
(-0.0027524874 1.3397149 0.0014612946)
(-0.0023930128 1.3335005 0.0025918578)
(-0.0037555511 1.3156983 0.0016739655)
(-0.0032122992 1.3113704 0.0025972381)
(-0.0047919902 1.2913482 0.0018477494)
(-0.0041800272 1.2885876 0.0027191111)
(-0.00018908668 1.0001284 0.00061927267)
(-0.00013662348 1.0000657 -0.00030925258)
(-0.00010680512 1.0000676 -0.00050190116)
(1.0284723e-05 1.0000624 -0.00055846646)
(0.00011072285 1.0000611 -0.00047913009)
(0.00010541077 1.0000574 -0.00028687886)
(-0.00024152703 0.99989451 -0.00016927532)
(-0.00049703698 1.002334 -0.00061815674)
(-0.0013601414 1.0020072 -0.0034125415)
(-0.00089348016 1.001818 -0.0048382037)
(0.00027644272 1.0017063 -0.0050505031)
(0.0011019356 1.0018723 -0.0042952455)
(0.0010829387 1.0020275 -0.0022283412)
(0.00028110369 1.0022407 -0.0005701548)
(-0.001161268 1.0079918 -0.0014812804)
(-0.0031172646 1.0070912 -0.0077436736)
(-0.0019777366 1.0063414 -0.010915493)
(0.00061172558 1.0061067 -0.011355279)
(0.0024793886 1.0066471 -0.0096497566)
(0.0024769017 1.0074164 -0.0046658418)
(0.00057155874 1.0083521 -0.00090491246)
(-0.0021298206 1.0187307 -0.0027810822)
(-0.0057640773 1.0169221 -0.014018448)
(-0.0035085661 1.015139 -0.019728692)
(0.0010661505 1.0146574 -0.020511663)
(0.0045669906 1.0159232 -0.017418649)
(0.0043693453 1.0175718 -0.0081973493)
(0.0010657905 1.0195654 -0.0015804)
(-0.0035602523 1.0369865 -0.0046666677)
(-0.0097009547 1.0337469 -0.02325988)
(-0.0057548073 1.0304495 -0.032919266)
(0.0017244419 1.0295828 -0.034281816)
(0.007722707 1.0318836 -0.028964268)
(0.0073280089 1.03485 -0.013594867)
(0.001851412 1.0383437 -0.0025839672)
(-0.0055552168 1.0661304 -0.0072946932)
(-0.015322327 1.0612658 -0.036409907)
(-0.0090042298 1.0561018 -0.052097895)
(0.0026448384 1.0547549 -0.05449323)
(0.012295157 1.058316 -0.045611937)
(0.011619047 1.0627144 -0.021246826)
(0.0028796995 1.0679882 -0.003946934)
(-0.0082097708 1.1100449 -0.010655518)
(-0.022801261 1.1044271 -0.053868521)
(-0.013452111 1.0975859 -0.078157206)
(0.0038613764 1.095873 -0.082217672)
(0.018450444 1.1004846 -0.067919982)
(0.017079641 1.1055953 -0.031260478)
(0.004324253 1.1124449 -0.0055002167)
(-0.011212023 1.1719578 -0.014371774)
(-0.031287641 1.1682871 -0.073478351)
(-0.018589604 1.1616621 -0.10834894)
(0.0051830857 1.1601658 -0.11473884)
(0.025461539 1.1644151 -0.09347141)
(0.022791843 1.1674605 -0.042523953)
(0.0058583173 1.1745772 -0.00714105)
(-0.01342055 1.2508288 -0.017170498)
(-0.037745735 1.2533696 -0.088011035)
(-0.022706274 1.252353 -0.13026333)
(0.0061757813 1.253295 -0.13896336)
(0.030747747 1.2521167 -0.11225361)
(0.02644174 1.2482902 -0.051273382)
(0.0070599701 1.2532493 -0.0082685469)
(-0.013548928 1.3377187 -0.017091713)
(-0.038167647 1.3523942 -0.085574982)
(-0.024407433 1.3691702 -0.13226582)
(0.0062694387 1.3752623 -0.1448459)
(0.032038674 1.3605419 -0.11158192)
(0.024783632 1.3387458 -0.051488805)
(0.0070796209 1.3391163 -0.008167023)
(-0.010962774 1.4150637 -0.012918285)
(-0.030625229 1.445697 -0.063681461)
(-0.021408497 1.4730002 -0.10075275)
(0.0040748323 1.476966 -0.11207949)
(0.025609028 1.4621958 -0.084994193)
(0.016332796 1.420056 -0.039585573)
(0.0055764302 1.4150351 -0.0063637302)
(-0.0067272401 1.4652527 -0.0059389701)
(-0.017191714 1.50063 -0.028523558)
(-0.013934654 1.5135517 -0.041841498)
(-0.00054393852 1.5100718 -0.04712816)
(0.01233367 1.5115088 -0.038297763)
(0.0048517149 1.4734172 -0.020487101)
(0.0030779632 1.464284 -0.0033885001)
(-0.0026445772 1.4824428 0.0005812103)
(-0.0047109649 1.505424 0.003795443)
(-0.0064850605 1.49171 0.011337384)
(-0.0050200659 1.4799724 0.0099282778)
(-0.0017114239 1.5022137 0.0055601598)
(-0.003602251 1.4913265 -0.0027948872)
(0.00070072031 1.4813879 -0.00049571129)
(1.5211522e-05 1.4741434 0.0048110449)
(0.0030137748 1.4744112 0.02437264)
(-0.0019630872 1.4359456 0.040829866)
(-0.0086512501 1.4192991 0.042827226)
(-0.010751448 1.4566033 0.031940643)
(-0.0069926339 1.4800581 0.0087582022)
(-0.00077033807 1.4738373 0.0014977353)
(0.0011438564 1.4523881 0.0067684859)
(0.0061148689 1.4268474 0.033584084)
(-0.00034821309 1.3726121 0.051524418)
(-0.01072261 1.3544903 0.056252209)
(-0.015178675 1.3986843 0.041125098)
(-0.0072921914 1.4509956 0.014335866)
(-0.0013172935 1.453207 0.0025056769)
(0.0013037343 1.426592 0.0071880451)
(0.0060970852 1.3765632 0.034478239)
(-0.00051085589 1.3148764 0.052803937)
(-0.011804442 1.2967259 0.056978736)
(-0.016854655 1.3427766 0.041375959)
(-0.0071355048 1.4141184 0.016128857)
(-0.0013807497 1.4282678 0.0028628507)
(0.0010061589 1.4013591 0.006774107)
(0.0047398121 1.3306383 0.032367476)
(-0.0015086154 1.2666702 0.049271991)
(-0.012490806 1.2490744 0.052035315)
(-0.017256712 1.2945411 0.038511214)
(-0.0074773693 1.3759618 0.01589757)
(-0.001315096 1.4037297 0.0029036716)
(0.00055094988 1.3777882 0.0063176504)
(0.0031649748 1.2912584 0.030015522)
(-0.0027689551 1.2279447 0.044036639)
(-0.012869175 1.2112828 0.045614523)
(-0.017046252 1.2548481 0.034210974)
(-0.0081171075 1.3401295 0.014888765)
(-0.0013010198 1.3812441 0.0028245051)
(-3.1221515e-05 1.3553819 0.0061613582)
(0.0016107847 1.2582481 0.027687191)
(-0.0040109725 1.1973242 0.038873337)
(-0.013050807 1.1818062 0.039589677)
(-0.01667607 1.2227982 0.029940549)
(-0.0087362682 1.3083413 0.013717612)
(-0.0014605461 1.3605077 0.0026292335)
(-0.00059457734 1.3338053 0.0065094182)
(0.0003065468 1.2309422 0.025743864)
(-0.0051010214 1.1731658 0.034509166)
(-0.013124687 1.1587616 0.034546226)
(-0.01631373 1.1970534 0.026352521)
(-0.0093380931 1.2810891 0.012627957)
(-0.0019307573 1.3402018 0.0023575582)
(-0.001133029 1.3126457 0.0071547818)
(-0.00069848096 1.2083917 0.024303599)
(-0.0059977149 1.1538553 0.031153185)
(-0.013143306 1.1405107 0.030652548)
(-0.016042593 1.1761632 0.023619162)
(-0.0099792571 1.2578034 0.011789175)
(-0.0026343126 1.3190506 0.0020088167)
(-0.0017216453 1.2913126 0.0078422528)
(-0.0014485355 1.1886912 0.023613795)
(-0.0067534907 1.1376237 0.029114633)
(-0.013156244 1.1257514 0.0280777)
(-0.01603352 1.1579653 0.02204383)
(-0.01071722 1.2370911 0.011333061)
(-0.0035526862 1.2967099 0.0015897462)
(-0.00017990715 1.0000384 -0.00017568571)
(-0.00036073414 1.0000807 -0.00048245559)
(-0.0003709156 1.0000842 -0.00075481534)
(-0.0002181161 1.0000809 -0.00094881269)
(3.0876587e-05 1.0000671 -0.0010030402)
(0.00025618312 1.0000556 -0.0009098112)
(0.00037320086 1.0000522 -0.00069307528)
(0.00032033695 1.0000522 -0.00040630277)
(0.00017789563 1.0000062 -0.00012783391)
(-0.0012505095 1.0018482 -0.0011708441)
(-0.003379995 1.0018343 -0.0044544802)
(-0.0032747557 1.0012877 -0.0067747853)
(-0.0017651858 1.0007837 -0.0083358899)
(0.00052822405 1.0006195 -0.0086582202)
(0.0025304216 1.0009861 -0.0076989982)
(0.0034263679 1.0016151 -0.005719398)
(0.0027726971 1.002075 -0.0032257016)
(0.00064402622 1.001842 -0.00062272876)
(-0.002742933 1.0074473 -0.0025732682)
(-0.0074383528 1.0062899 -0.0098188087)
(-0.0073901033 1.0041651 -0.015144743)
(-0.0040485427 1.0023395 -0.018894248)
(0.0012235382 1.0018375 -0.019682427)
(0.0057830011 1.0031038 -0.01735332)
(0.0076585902 1.005304 -0.012693443)
(0.006180843 1.0071051 -0.0071903453)
(0.0014691108 1.0076341 -0.001328751)
(-0.0050054097 1.0180743 -0.0046838128)
(-0.013327649 1.0149404 -0.017610251)
(-0.013515979 1.009822 -0.027566277)
(-0.0074657788 1.0054622 -0.03474536)
(0.0022995065 1.0043224 -0.036281695)
(0.010703499 1.0073007 -0.031793766)
(0.013954842 1.0124348 -0.02294414)
(0.011199844 1.0168475 -0.01295674)
(0.002587969 1.0184781 -0.0023615744)
(-0.0083495509 1.0361654 -0.0078416144)
(-0.022183184 1.0300176 -0.029302582)
(-0.02295949 1.0203099 -0.046775418)
(-0.012800073 1.0118705 -0.059757061)
(0.0040102426 1.0096781 -0.062631571)
(0.018412022 1.0154149 -0.054395524)
(0.023592823 1.0251421 -0.038572011)
(0.018635774 1.0334696 -0.02140728)
(0.0042074077 1.0367911 -0.0037991259)
(-0.012956857 1.0651032 -0.012325184)
(-0.035133408 1.0554751 -0.046400217)
(-0.037308516 1.0397356 -0.076069775)
(-0.02112323 1.0254143 -0.098963963)
(0.0067125294 1.0216264 -0.10422928)
(0.03034069 1.0314307 -0.089426711)
(0.038005576 1.0475031 -0.061902485)
(0.029325682 1.0607354 -0.033485958)
(0.0065357418 1.0658502 -0.0057751963)
(-0.018889506 1.1089303 -0.018095789)
(-0.052770358 1.0969459 -0.069706119)
(-0.057944005 1.0753476 -0.11834809)
(-0.033604013 1.0540276 -0.1581833)
(0.010803427 1.0481531 -0.1676998)
(0.04800152 1.063087 -0.14134891)
(0.058203546 1.0860674 -0.094573439)
(0.043397586 1.1036372 -0.049380342)
(0.0094366947 1.1096588 -0.0083323868)
(-0.025518782 1.1707053 -0.024442595)
(-0.073288455 1.1615638 -0.096954244)
(-0.083083656 1.1395287 -0.17048489)
(-0.051203786 1.1221792 -0.2382355)
(0.016972801 1.1174673 -0.25707644)
(0.071230422 1.1285728 -0.20822768)
(0.082352509 1.1501486 -0.13394881)
(0.059202477 1.1674305 -0.067232132)
(0.012628664 1.1714274 -0.011115396)
(-0.030474245 1.2499184 -0.029141432)
(-0.089096342 1.2533381 -0.11788461)
(-0.11166524 1.2613557 -0.22499037)
(-0.072213161 1.2478564 -0.32708956)
(0.021256833 1.2370879 -0.35336765)
(0.098666339 1.2582051 -0.2853423)
(0.10440493 1.2547545 -0.16803665)
(0.071098062 1.253241 -0.080550868)
(0.01493083 1.2501353 -0.01308755)
(-0.030583558 1.3375745 -0.029017217)
(-0.091932319 1.3730129 -0.11984919)
(-0.11598045 1.3889272 -0.22756433)
(-0.071479936 1.3231223 -0.30242127)
(0.012403407 1.2988945 -0.32086224)
(0.089317714 1.3564677 -0.2758271)
(0.11114106 1.3934154 -0.17736944)
(0.070009874 1.3530689 -0.078657826)
(0.014745463 1.336756 -0.012915051)
(-0.02382803 1.4154829 -0.022076278)
(-0.071939917 1.4770853 -0.089651731)
(-0.076685802 1.4311223 -0.13901193)
(-0.047452059 1.323499 -0.1602859)
(-0.0055058727 1.2928972 -0.16922803)
(0.041607121 1.3713119 -0.15974736)
(0.073363912 1.4720162 -0.12293729)
(0.052877891 1.4479509 -0.05840272)
(0.011095758 1.4138846 -0.0098766867)
(-0.012430014 1.4655682 -0.010543646)
(-0.031524035 1.5080306 -0.031872185)
(-0.021535557 1.3930272 -0.017992804)
(-0.017612504 1.2598966 0.0048282952)
(-0.022361307 1.2254907 0.005544689)
(-0.013434463 1.316594 -0.015757055)
(0.015686904 1.4615532 -0.038388199)
(0.02469384 1.5034227 -0.026412699)
(0.005223168 1.4640205 -0.0050031887)
(-0.0019073423 1.482215 0.00016722961)
(0.0036233769 1.472397 0.01765274)
(0.016612716 1.3122166 0.067689311)
(0.0017896736 1.1654531 0.11002178)
(-0.031834772 1.1293179 0.11511151)
(-0.048450342 1.2266841 0.079879146)
(-0.030369716 1.3969096 0.031007781)
(-0.0027050108 1.5048005 0.0034332482)
(-0.00013268624 1.4813177 -0.00047297108)
(0.0047991106 1.4733017 0.0071637212)
(0.024398469 1.4080071 0.047824049)
(0.03235184 1.2297647 0.10495355)
(0.008489768 1.0848071 0.1468203)
(-0.034479608 1.0500859 0.15117812)
(-0.061511767 1.1445025 0.11698547)
(-0.052646157 1.3191378 0.065105428)
(-0.020879878 1.4678188 0.021972949)
(-0.0032974702 1.473348 0.0024726992)
(0.0076185432 1.4506284 0.010240305)
(0.031515206 1.3414845 0.059281932)
(0.03381453 1.1639076 0.11055245)
(0.007757208 1.030458 0.14423878)
(-0.033490549 0.99930994 0.14655952)
(-0.061630228 1.084859 0.11817697)
(-0.058408823 1.2498484 0.072946927)
(-0.029009616 1.4146211 0.029006825)
(-0.004452424 1.4518788 0.0038483296)
(0.0077874948 1.422569 0.010866338)
(0.030421881 1.2831353 0.059348938)
(0.028904324 1.1158045 0.10129874)
(0.0042661754 0.99711177 0.1263438)
(-0.031240294 0.97006731 0.12677118)
(-0.056336961 1.0450562 0.10414639)
(-0.055950696 1.1946854 0.067694146)
(-0.030791291 1.3606128 0.028979185)
(-0.0044987683 1.4263161 0.0040745446)
(0.0069495466 1.3930648 0.010677314)
(0.025981079 1.2355289 0.054492245)
(0.022355702 1.0818728 0.087663675)
(0.00049838047 0.97753046 0.10571007)
(-0.028833325 0.95417174 0.1046845)
(-0.049804541 1.019327 0.086672169)
(-0.050649217 1.1529974 0.058133318)
(-0.029998741 1.31271 0.026334622)
(-0.0041927364 1.4014403 0.0037042085)
(0.0059563814 1.3637934 0.010520521)
(0.021064287 1.1982058 0.048586024)
(0.016248929 1.0583172 0.074482028)
(-0.0026490098 0.96641306 0.087268202)
(-0.026643579 0.94608021 0.085233349)
(-0.043792115 1.0029845 0.070671996)
(-0.045069676 1.1221836 0.048305584)
(-0.028330243 1.2725687 0.022995062)
(-0.0039662757 1.3781824 0.0031345389)
(0.005120746 1.3360697 0.010599468)
(0.016667284 1.169337 0.043167446)
(0.011229029 1.0419797 0.063329046)
(-0.0050283988 0.96034901 0.072277731)
(-0.024754935 0.94244443 0.069586547)
(-0.038782832 0.99265163 0.057538611)
(-0.040132627 1.0995008 0.039748498)
(-0.026366287 1.2396007 0.01956321)
(-0.0041008515 1.35604 0.0026503845)
(0.0044544864 1.3108284 0.010878096)
(0.013029514 1.1467637 0.038640698)
(0.0073303053 1.030317 0.054439422)
(-0.0067434519 0.95712206 0.060616088)
(-0.023158435 0.94119902 0.057511519)
(-0.034773839 0.9859304 0.047305781)
(-0.036071951 1.0824765 0.032856351)
(-0.024654958 1.2126971 0.016613678)
(-0.0046023785 1.3345081 0.0022797995)
(0.003953245 1.2882428 0.011334431)
(0.010252247 1.1284242 0.035207002)
(0.0044201555 1.0211932 0.047680801)
(-0.0079453623 0.95531221 0.051790087)
(-0.021820113 0.9411429 0.048420376)
(-0.031638757 0.98106364 0.039619568)
(-0.032950611 1.0688174 0.027662522)
(-0.023440963 1.1905502 0.01437481)
(-0.0054081223 1.3133284 0.0019458766)
(0.0036803251 1.2676401 0.012072452)
(0.0084382419 1.1119678 0.03312413)
(0.0023562942 1.0133708 0.042857402)
(-0.0087772575 0.9543903 0.045322484)
(-0.020758969 0.94185207 0.041755892)
(-0.029301171 0.9772678 0.034077134)
(-0.030843642 1.0566332 0.024112844)
(-0.023062852 1.1710826 0.013122661)
(-0.0063621003 1.2919216 0.0015275835)
(0.00059092419 1.0001241 -0.00018732818)
(-0.00048611995 1.0000852 -0.00036693954)
(-0.00066209001 1.0000985 -0.00067139352)
(-0.00061951879 1.0001008 -0.00095939581)
(-0.00035382263 1.0000825 -0.0011670901)
(5.345216e-05 1.0000558 -0.0012336102)
(0.00043242171 1.0000375 -0.0011272165)
(0.0006392023 1.0000331 -0.00088818098)
(0.00062926958 1.0000399 -0.00059025025)
(0.00039129606 1.0000468 -0.00029582645)
(-0.0011977557 1.0006914 0.0011250949)
(-0.00068514189 1.0024069 -0.00045017725)
(-0.0045437862 1.0019153 -0.0033338433)
(-0.00595765 1.0011219 -0.0059158578)
(-0.0053377603 1.0000221 -0.0082946516)
(-0.0027744991 0.99910987 -0.0098893453)
(0.00086201906 0.99886585 -0.010244591)
(0.0041286528 0.99944674 -0.0092398599)
(0.0058012563 1.0005469 -0.007191729)
(0.0054002097 1.0015764 -0.004624377)
(0.0031220415 1.0021134 -0.0021063267)
(0.00016314086 1.0036563 5.674359e-06)
(-0.0016151366 1.0081687 -0.0010167489)
(-0.0099932013 1.0064325 -0.0073054671)
(-0.013412932 1.0032072 -0.013278059)
(-0.012326721 0.99905019 -0.019025548)
(-0.0065153377 0.99568085 -0.023000999)
(0.0020325701 0.99483713 -0.023883962)
(0.0096420798 0.99704132 -0.021375242)
(0.013268879 1.0010731 -0.016353685)
(0.012016277 1.0049578 -0.010300873)
(0.0069721656 1.0072978 -0.0047161459)
(0.00041806244 1.0093362 -0.0001900301)
(-0.0030017549 1.0189946 -0.001845368)
(-0.017905884 1.01514 -0.013053795)
(-0.024578836 1.0072817 -0.024291798)
(-0.023110435 0.99715806 -0.035553061)
(-0.012406912 0.98877677 -0.043691164)
(0.0039333146 0.98668224 -0.045539864)
(0.018312827 0.99225688 -0.040331611)
(0.024674088 1.0021071 -0.030263403)
(0.021841263 1.0114793 -0.018707467)
(0.012588882 1.0173191 -0.0085822718)
(0.00083341127 1.0207286 -0.00039173275)
(-0.0050099707 1.0372552 -0.0030988466)
(-0.029749764 1.0302695 -0.02170233)
(-0.042055712 1.0152104 -0.041553461)
(-0.040712633 0.99517596 -0.062599745)
(-0.022267379 0.97813797 -0.078453813)
(0.0071740776 0.9738233 -0.082136284)
(0.032760981 0.98527864 -0.071880322)
(0.042973763 1.0050234 -0.052541637)
(0.036971058 1.0232551 -0.031627642)
(0.020820631 1.0343618 -0.014272572)
(0.0012849296 1.0399108 -0.00064171272)
(-0.0077571285 1.0664372 -0.0048878101)
(-0.047022148 1.0557763 -0.034373164)
(-0.06907668 1.0310823 -0.06830775)
(-0.069333365 0.9961373 -0.10651581)
(-0.039059603 0.96380158 -0.1377139)
(0.012799757 0.9551901 -0.1453309)
(0.056950869 0.97782145 -0.12441984)
(0.072064064 1.0135545 -0.087915833)
(0.059790142 1.0443879 -0.051079949)
(0.032632968 1.0620956 -0.02242607)
(0.0017741942 1.07014 -0.0011615427)
(-0.011275321 1.1104825 -0.0072318902)
(-0.070536316 1.0972804 -0.051697141)
(-0.10894723 1.0627361 -0.10787656)
(-0.1155088 1.0070426 -0.17811227)
(-0.070091717 0.95736569 -0.24614757)
(0.02380107 0.94386431 -0.26524659)
(0.098904459 0.97837355 -0.21525197)
(0.11710441 1.0355472 -0.14277339)
(0.092068144 1.0817533 -0.078599089)
(0.048267223 1.1053617 -0.033157898)
(0.0024438038 1.1156788 -0.0019054514)
(-0.015188779 1.1724837 -0.0098994045)
(-0.098031779 1.1619153 -0.071896965)
(-0.1603912 1.1269758 -0.15906038)
(-0.19822169 1.074655 -0.30271362)
(-0.12124251 0.97089862 -0.42199869)
(0.037000929 0.93609032 -0.44952091)
(0.17075418 1.0216499 -0.37427541)
(0.18694813 1.1050401 -0.22660862)
(0.13137979 1.1457387 -0.11196983)
(0.065628307 1.1690981 -0.045075498)
(0.0029592021 1.1788429 -0.0028442028)
(-0.018170821 1.2513291 -0.011798964)
(-0.11918794 1.2536875 -0.087412825)
(-0.22093782 1.2590517 -0.2180745)
(-0.24297543 1.1186698 -0.36450062)
(-0.14267941 0.9141848 -0.46728277)
(0.030057829 0.85677164 -0.4975205)
(0.18662504 1.004811 -0.43106873)
(0.24544245 1.2098614 -0.30260738)
(0.16808207 1.2565819 -0.14342088)
(0.078779452 1.2539171 -0.054019399)
(0.003163793 1.2585395 -0.0038022537)
(-0.01823362 1.3381206 -0.01166501)
(-0.12137772 1.37338 -0.089756447)
(-0.21043524 1.3542566 -0.2006313)
(-0.20319593 1.1051121 -0.28516916)
(-0.1293982 0.84949143 -0.36727125)
(0.0049678961 0.78105398 -0.4015806)
(0.13352421 0.95961644 -0.34844835)
(0.19870604 1.2405565 -0.25853891)
(0.17527594 1.3959533 -0.15153527)
(0.077019979 1.3509731 -0.05321409)
(0.0028038584 1.344629 -0.0042850123)
(-0.014185947 1.4153675 -0.0088381439)
(-0.092494926 1.4774517 -0.067615923)
(-0.11912568 1.3614661 -0.10029373)
(-0.10105963 1.065006 -0.1082125)
(-0.077825467 0.80420489 -0.12930692)
(-0.034254644 0.73731766 -0.15351171)
(0.026105284 0.91485324 -0.1477098)
(0.081761568 1.2151601 -0.12930773)
(0.11131351 1.4580803 -0.1006784)
(0.056946597 1.4416441 -0.040206855)
(0.0017647707 1.4200068 -0.0040389949)
(-0.0073097973 1.4653121 -0.0044291569)
(-0.037105369 1.5083284 -0.023683333)
(-0.012403943 1.3017238 0.01318229)
(0.014552715 0.98026212 0.081128912)
(-0.0069509229 0.72199453 0.14483866)
(-0.065416533 0.659794 0.14459762)
(-0.086408734 0.83010374 0.081526586)
(-0.042710222 1.1380173 0.01293582)
(0.019155961 1.4327596 -0.026144042)
(0.025834297 1.4972325 -0.019460718)
(0.00021074766 1.4684414 -0.0032892833)
(-0.00087464439 1.4824026 -0.00033899496)
(0.00997774 1.4727601 0.014796971)
(0.057460664 1.2105547 0.086501117)
(0.077400756 0.87911466 0.18090321)
(0.028456911 0.62490934 0.26182946)
(-0.073227551 0.56407181 0.26883279)
(-0.1355604 0.73076119 0.19289005)
(-0.11519162 1.0390626 0.098024802)
(-0.049436998 1.3594277 0.028663195)
(-0.0030617871 1.5044021 -0.00035818113)
(-0.0011290183 1.4847828 -0.0022812066)
(0.0033351597 1.4740158 0.0022822599)
(0.038128325 1.4084725 0.038069854)
(0.083571111 1.1281254 0.11381476)
(0.088675294 0.81803119 0.19638693)
(0.031153792 0.59570906 0.25557393)
(-0.06560235 0.54466112 0.25717002)
(-0.1341989 0.68682802 0.20025857)
(-0.13437196 0.96468695 0.12179068)
(-0.081169845 1.2785898 0.053239625)
(-0.021792619 1.4753463 0.011293779)
(-0.001680376 1.476927 -0.001403355)
(0.005296261 1.452251 0.0034401117)
(0.048098335 1.3420706 0.047065392)
(0.083193699 1.0693199 0.11347252)
(0.077504076 0.79655662 0.17568058)
(0.02344485 0.61221021 0.21294655)
(-0.055876457 0.57117239 0.21018528)
(-0.1159944 0.68664185 0.17059515)
(-0.12626097 0.92307274 0.11354897)
(-0.087901453 1.2104204 0.057419758)
(-0.030483647 1.4288811 0.016164773)
(-0.0017457703 1.4560406 -0.0007064145)
(0.0056654428 1.4265008 0.003730917)
(0.047038289 1.2838245 0.047421019)
(0.071822835 1.0311155 0.10160265)
(0.06098933 0.79657718 0.14640719)
(0.014755364 0.64472912 0.16901654)
(-0.047451881 0.61159182 0.16394188)
(-0.096155403 0.70536983 0.13554756)
(-0.10918627 0.90368531 0.094684682)
(-0.082261776 1.1582517 0.051683064)
(-0.031758566 1.3789394 0.016326527)
(-0.0016359802 1.4307905 -0.00025165293)
(0.0051020392 1.401344 0.0037220637)
(0.041321567 1.2362994 0.044106775)
(0.058124756 1.0070502 0.087157984)
(0.045714095 0.80574531 0.11922134)
(0.0076266856 0.679171 0.13276365)
(-0.040740551 0.65189496 0.12663316)
(-0.079181759 0.72932508 0.10518638)
(-0.09164101 0.89660804 0.075252954)
(-0.072487299 1.1198306 0.04286309)
(-0.030128805 1.3329531 0.014436624)
(-0.0015412762 1.4059565 -2.8154465e-05)
(0.0043534159 1.3778873 0.003765676)
(0.034767418 1.1990314 0.040045468)
(0.045776172 0.99211002 0.07395349)
(0.033445185 0.81783091 0.097021576)
(0.0023635749 0.71044389 0.10493043)
(-0.03549342 0.68748658 0.09839774)
(-0.065757315 0.75274973 0.081403569)
(-0.076610167 0.89579698 0.058757476)
(-0.062675594 1.0921326 0.034312121)
(-0.028091728 1.2934274 0.012170331)
(-0.0014239475 1.3836196 -3.7534182e-05)
(0.0037901063 1.3556556 0.0039269717)
(0.028880345 1.1701987 0.036278138)
(0.035774529 0.98291848 0.063067139)
(0.024156972 0.83004742 0.079807932)
(-0.0013377475 0.73726592 0.084125936)
(-0.031383275 0.71754116 0.07751937)
(-0.055437606 0.77363959 0.06352218)
(-0.064623557 0.89794635 0.045810972)
(-0.054233765 1.072256 0.027097307)
(-0.026080173 1.2602678 0.0099418402)
(-0.001417955 1.3633825 -0.0002659969)
(0.0035750007 1.3343355 0.0043881104)
(0.024019713 1.1476424 0.03309079)
(0.028062352 0.97703799 0.054497453)
(0.01730335 0.84115937 0.066727037)
(-0.0038722876 0.75982668 0.068677984)
(-0.028131605 0.74262208 0.062162418)
(-0.047551939 0.79155502 0.050283502)
(-0.055349376 0.90111009 0.036015128)
(-0.047431496 1.0576125 0.021378025)
(-0.024400791 1.2327289 0.0080120794)
(-0.0017964424 1.3432106 -0.00089096491)
(0.0034872128 1.3134793 0.00519816)
(0.020332097 1.1293028 0.030656185)
(0.02229303 0.97270624 0.047935764)
(0.012295468 0.85103397 0.056828363)
(-0.0055841702 0.77900354 0.057154812)
(-0.02552976 0.76381169 0.050802835)
(-0.041499111 0.80698425 0.040499766)
(-0.048244263 0.90438238 0.028726953)
(-0.04224834 1.0459079 0.017065817)
(-0.023221569 1.2098534 0.0065265234)
(-0.002438632 1.321598 -0.0017437374)
(0.0032674523 1.2924608 0.0062311404)
(0.017972722 1.1128666 0.029223004)
(0.01812712 0.96929009 0.043111505)
(0.0086151396 0.8599155 0.049396897)
(-0.0068148942 0.7954638 0.048498613)
(-0.023517766 0.78187229 0.042292392)
(-0.036889681 0.82041701 0.033217493)
(-0.042910216 0.90767035 0.023389098)
(-0.038627952 1.0355972 0.014044801)
(-0.022820896 1.1898226 0.005622261)
(-0.0031018011 1.2986544 -0.002637335)
(-0.00032691179 1.0000694 -0.00013652963)
(-0.00076131916 1.0000922 -0.00037637643)
(-0.00095005225 1.0001059 -0.00062505722)
(-0.00087941863 1.000093 -0.00088120706)
(-0.00050767462 1.0000572 -0.0010911524)
(7.5502611e-05 1.0000156 -0.0011605845)
(0.00062107054 0.99999446 -0.0010583267)
(0.00091612683 0.99999558 -0.00083064501)
(0.00091173472 1.0000103 -0.00056676127)
(0.00066753059 1.0000329 -0.00031978111)
(6.7560011e-05 1.0000405 -0.00012368407)
(-0.0035218173 1.0021332 -0.0013275939)
(-0.0068639921 1.0014838 -0.0032397242)
(-0.0083348394 1.0001407 -0.0053142857)
(-0.0072838262 0.99851391 -0.0072604674)
(-0.0037466159 0.9972825 -0.0085956671)
(0.0011804805 0.99698088 -0.0088961391)
(0.0056369134 0.99778324 -0.0080606826)
(0.0080271233 0.99928897 -0.0063625163)
(0.0077859786 1.0008616 -0.0042948687)
(0.0053288157 1.0018805 -0.0023116643)
(0.0018030103 1.0022282 -0.00079399773)
(-0.0078965679 1.00735 -0.0030025433)
(-0.015308495 1.0044953 -0.0072536067)
(-0.019155478 0.99925136 -0.012202934)
(-0.017169183 0.99287964 -0.017050001)
(-0.0089855667 0.98786027 -0.020479771)
(0.0028593767 0.98663857 -0.021255142)
(0.01344219 0.98995416 -0.019069053)
(0.018723005 0.99597613 -0.014776821)
(0.017674349 1.0020438 -0.0097350027)
(0.011745516 1.0061634 -0.0050951465)
(0.0041363092 1.0077728 -0.0016805304)
(-0.014232644 1.0173411 -0.0055274976)
(-0.027828819 1.0102884 -0.01321745)
(-0.035826431 0.99744189 -0.022817963)
(-0.033130367 0.98116861 -0.032844407)
(-0.017765135 0.96774522 -0.040399956)
(0.0057554311 0.964443 -0.042143072)
(0.026393722 0.97338584 -0.037236827)
(0.035651571 0.98918961 -0.028039925)
(0.032644608 1.0042793 -0.017948361)
(0.021149272 1.0143956 -0.0091163371)
(0.0073853563 1.0181443 -0.0029195746)
(-0.023539431 1.0343407 -0.0092609192)
(-0.047169159 1.0209249 -0.022424066)
(-0.063075921 0.99554759 -0.040171427)
(-0.060269727 0.96246813 -0.059732261)
(-0.032890222 0.93430268 -0.074720526)
(0.010791562 0.92706462 -0.078404098)
(0.048631606 0.94629393 -0.068413228)
(0.064142317 0.97875643 -0.05034775)
(0.056470333 1.0091653 -0.030988011)
(0.03537359 1.0287849 -0.015182652)
(0.012407416 1.0357182 -0.0048471391)
(-0.036789292 1.062058 -0.014548942)
(-0.076634413 1.0404809 -0.036457472)
(-0.10724783 0.99657617 -0.068466406)
(-0.10860741 0.93114605 -0.10773251)
(-0.062259846 0.86888684 -0.14184653)
(0.02095144 0.85360971 -0.15078674)
(0.09036236 0.89546335 -0.12693767)
(0.11231726 0.965273 -0.088148681)
(0.094041828 1.0205398 -0.051572005)
(0.056346695 1.0532802 -0.024125642)
(0.019423131 1.0638049 -0.0077769855)
(-0.054354563 1.1053369 -0.021595808)
(-0.11912483 1.0761678 -0.056708105)
(-0.17913976 1.007507 -0.11424801)
(-0.21139887 0.90356672 -0.21004568)
(-0.1314673 0.77159125 -0.30009669)
(0.043749086 0.73160967 -0.3212361)
(0.18720485 0.83362489 -0.26259169)
(0.20083423 0.95805526 -0.157617)
(0.15135494 1.0464561 -0.082899254)
(0.085204247 1.0938409 -0.036414337)
(0.028460348 1.1070031 -0.011619536)
(-0.074120427 1.1692496 -0.029707776)
(-0.17148062 1.1403748 -0.081440131)
(-0.30460885 1.0751655 -0.19560878)
(-0.33726672 0.8352168 -0.32956624)
(-0.19287758 0.54766034 -0.4261722)
(0.055210004 0.47158554 -0.45319863)
(0.27170863 0.67507373 -0.39180783)
(0.34324628 0.97590716 -0.27125218)
(0.23311058 1.1147401 -0.12838749)
(0.11925142 1.1582397 -0.050685598)
(0.038340042 1.1689214 -0.015897039)
(-0.088803779 1.2542764 -0.035816381)
(-0.22623345 1.2623081 -0.10923857)
(-0.37288493 1.1191897 -0.23044595)
(-0.37132102 0.69714106 -0.34678191)
(-0.22708293 0.2731412 -0.46702918)
(0.045307052 0.15956553 -0.51292323)
(0.28414372 0.46067336 -0.43533739)
(0.37362777 0.92157067 -0.30563941)
(0.31631861 1.2352058 -0.17655184)
(0.145898 1.2540927 -0.062315678)
(0.045400339 1.249273 -0.019143729)
(-0.086331916 1.3531983 -0.035928073)
(-0.23092777 1.3901274 -0.10822845)
(-0.30472323 1.1056569 -0.17296731)
(-0.3149336 0.58545771 -0.26243034)
(-0.23334999 0.052217126 -0.40378562)
(0.0033608482 -0.10474828 -0.48346048)
(0.21643034 0.29409342 -0.38721649)
(0.2840247 0.85675611 -0.25304356)
(0.274699 1.2898479 -0.15817193)
(0.15161198 1.382211 -0.066422213)
(0.044081439 1.3384302 -0.018971615)
(-0.064241838 1.4463139 -0.027920709)
(-0.14603698 1.4324521 -0.059946787)
(-0.1385444 1.0656896 -0.052081439)
(-0.13593452 0.54194312 -0.05218681)
(-0.16244056 -0.0022280652 -0.12829927)
(-0.080976352 -0.17808657 -0.22523554)
(0.025273675 0.2526877 -0.16713829)
(0.08333293 0.80949395 -0.11312499)
(0.13147475 1.276226 -0.086278809)
(0.11211166 1.4811668 -0.051726469)
(0.031725833 1.4182023 -0.01443325)
(-0.029156307 1.5009983 -0.013475889)
(-0.028322317 1.3943093 0.0027627451)
(0.04488763 0.98094925 0.073215019)
(0.10792138 0.47116298 0.19801493)
(0.034152851 0.15483598 0.27244088)
(-0.1233842 -0.012388821 0.29491249)
(-0.19303111 0.24930653 0.16025689)
(-0.13808306 0.72580041 0.052054197)
(-0.02586316 1.2050645 -0.0054628545)
(0.039953142 1.5008934 -0.022595114)
(0.01360622 1.4706293 -0.0074686262)
(0.0025753412 1.50567 0.0004221787)
(0.055112396 1.3136912 0.045355037)