/*--------------------------------*- C++ -*----------------------------------*\
| =========                 |                                                 |
| \\      /  F ield         | OpenFOAM: The Open Source CFD Toolbox           |
|  \\    /   O peration     | Version:  2406                                  |
|   \\  /    A nd           | Website:  www.openfoam.com                      |
|    \\/     M anipulation  |                                                 |
\*---------------------------------------------------------------------------*/
FoamFile
{
    version     2.0;
    format      ascii;
    arch        "LSB;label=32;scalar=64";
    class       volScalarField;
    location    "250";
    object      epsilon;
}
// * * * * * * * * * * * * * * * * * * * * * * * * * * * * * * * * * * * * * //

dimensions      [0 2 -3 0 0 0 0];

internalField   nonuniform List<scalar> 
12225
(
1085.71
2467.78
3645.43
4414.73
4812.14
4980.49
4975.3
4926.49
4840.67
4729.11
4620.67
4517.18
4425.48
4339.49
4268.99
4198.41
4150.84
4085.43
81.231
262.521
438.555
584.504
691.168
762.825
805.019
829.672
846.864
856.892
866.627
873.726
883.011
890.992
900.544
910.428
917.551
934.489
20.5772
51.1749
83.4701
112.535
136.926
156.193
170.162
179.892
186.379
190.789
193.492
195.621
196.871
198.377
199.369
200.752
202.642
206.065
14.7578
21.8681
30.0198
38.5015
46.2164
53.0384
58.6227
63.2636
66.7561
69.6471
71.6134
73.3337
74.32
75.337
75.762
76.3058
76.6703
77.4567
14.361
16.3335
18.4562
21.4873
24.4386
27.262
29.7364
31.9833
33.819
35.4796
36.7453
37.928
38.7445
39.5762
40.0573
40.6476
40.8536
41.4692
14.6447
14.9541
15.4274
16.4563
17.6089
18.8289
19.9697
21.0769
22.0337
22.9483
23.6897
24.4159
24.9564
25.5278
25.8921
26.3526
26.5482
27.0041
14.7184
14.6387
14.6737
14.8757
15.2175
15.6833
16.1628
16.6724
17.1383
17.6109
18.0104
18.4208
18.7385
19.0882
19.3206
19.6258
19.7605
20.0853
14.7545
14.5907
14.4691
14.4209
14.4418
14.5153
14.6476
14.8246
15.0022
15.2023
15.3792
15.5761
15.7326
15.9151
16.0396
16.2095
16.2873
16.4803
14.7641
14.5919
14.4345
14.3029
14.2031
14.1371
14.0973
14.0987
14.1107
14.1415
14.1782
14.2346
14.2793
14.3427
14.3851
14.4504
14.4806
14.5627
14.7656
14.5942
14.432
14.2828
14.1465
14.0296
13.9256
13.8437
13.7744
13.7224
13.6771
13.6482
13.6204
13.6063
13.5891
13.5839
13.5722
13.5818
14.7657
14.5945
14.4323
14.2806
14.137
14.0051
13.8816
13.7705
13.6679
13.5777
13.4938
13.4219
13.3537
13.2971
13.2406
13.1973
13.1473
13.1179
14.7657
14.5944
14.4323
14.2801
14.1357
14.0007
13.8728
13.754
13.6417
13.5385
13.4409
13.3523
13.2677
13.1922
13.1185
13.0549
12.9895
12.9368
14.7657
14.5941
14.4321
14.2796
14.1353
13.9995
13.8707
13.7496
13.6347
13.5271
13.4247
13.3294
13.2383
13.1542
13.0731
12.999
12.9266
12.8616
14.7657
14.594
14.4319
14.2792
14.1349
13.9987
13.8698
13.7481
13.6326
13.5236
13.4201
13.3224
13.2294
13.1417
13.0581
12.9795
12.9043
12.8337
14.7657
14.5938
14.4317
14.2789
14.1345
13.9981
13.8691
13.7471
13.6315
13.5221
13.4183
13.32
13.2265
13.1379
13.0536
12.9737
12.8975
12.8253
14.7657
14.5938
14.4316
14.2786
14.1341
13.9976
13.8685
13.7463
13.6306
13.5211
13.4171
13.3185
13.2249
13.136
13.0515
12.9713
12.8948
12.8222
14.7657
14.5937
14.4315
14.2784
14.1338
13.9972
13.868
13.7457
13.6299
13.5202
13.4162
13.3174
13.2237
13.1347
13.0501
12.9696
12.8931
12.8203
14.7657
14.5937
14.4314
14.2783
14.1336
13.9969
13.8677
13.7453
13.6294
13.5196
13.4155
13.3167
13.2228
13.1337
13.049
12.9685
12.8919
12.819
14.7657
14.5937
14.4314
14.2782
14.1336
13.9969
13.8675
13.7451
13.6292
13.5194
13.4152
13.3163
13.2224
13.1333
13.0485
12.968
12.8913
12.8184
14.7657
14.5937
14.4315
14.2783
14.1337
13.997
13.8677
13.7453
13.6294
13.5196
13.4154
13.3166
13.2227
13.1336
13.0489
12.9683
12.8917
12.8188
14.7657
14.5937
14.4316
14.2785
14.1339
13.9972
13.868
13.7457
13.63
13.5202
13.4163
13.3176
13.2241
13.1352
13.051
12.9708
12.8948
12.8224
14.7657
14.5938
14.4317
14.2786
14.1343
13.9977
13.869
13.7473
13.6325
13.524
13.4219
13.3252
13.2344
13.1482
13.0676
12.9907
12.9192
12.8504
14.7657
14.5937
14.4319
14.2789
14.1361
14.002
13.8782
13.7628
13.6573
13.5595
13.4707
13.3883
13.3141
13.2446
13.1828
13.1237
13.0728
13.0213
14.7644
14.5922
14.4335
14.2871
14.1628
14.0551
13.9689
13.8978
13.8459
13.8048
13.7783
13.758
13.7482
13.7415
13.7414
13.7453
13.7514
13.7512
14.7478
14.5944
14.4764
14.4101
14.4234
14.4613
14.5554
14.6706
14.8169
14.9612
15.1237
15.2711
15.4319
15.5683
15.7195
15.8373
15.978
16.0719
14.6504
14.7821
14.9369
15.3416
15.9227
16.5508
17.2338
17.878
18.5377
19.1217
19.7127
20.2096
20.72
21.1248
21.5587
21.8756
22.2453
22.4806
14.572
16.1273
17.9726
20.4196
22.9236
25.2654
27.5467
29.5525
31.4906
33.1025
34.6855
35.9137
37.1756
38.0656
39.0608
39.6724
40.4609
40.8522
16.5442
25.8796
36.7208
46.5546
55.8657
64.2732
72.1012
78.7409
84.8017
89.5901
94.0126
97.1742
100.312
102.189
104.451
105.414
107.132
107.488
45.7965
105.211
164.439
217.233
267.842
313.448
353.657
386.102
413.216
433.649
450.586
462.693
472.88
479.759
486.798
490.286
496.13
497.463
632.343
1081.16
1534.74
1880.99
2183.47
2431.77
2631.53
2773.03
2876.15
2932.21
2969.07
2970.17
2963.16
2946.23
2918.32
2885.06
2849.27
2811.94
0.223089
0.221102
0.378196
0.54563
0.704538
0.847514
0.973063
1.08223
1.18436
1.28558
1.38682
1.4915
1.60279
1.72274
1.85232
1.99279
2.14901
2.33589
2.57562
2.86816
3.20662
3.59204
4.03041
4.53034
5.1012
5.75168
6.48796
7.31638
8.24221
9.27064
10.4066
11.6474
12.9938
14.4454
16.0017
17.6607
19.4225
21.2871
23.2554
25.3293
27.5122
29.8097
32.2301
34.7867
37.4979
40.3919
43.5033
46.7253
50.1128
53.647
57.343
61.2006
65.2264
69.4241
73.7984
78.3541
83.095
88.0261
93.1507
98.4736
103.998
109.727
115.665
121.814
128.176
134.754
141.549
148.563
155.796
163.249
170.921
178.811
186.918
195.24
203.773
212.514
221.46
230.606
239.945
249.472
259.179
269.061
279.106
289.307
299.653
310.134
320.737
331.451
342.261
353.153
364.111
375.117
386.152
397.194
408.22
419.202
430.114
440.924
451.608
462.155
472.593
482.983
493.185
503.251
513.138
522.844
532.343
541.621
550.658
559.437
567.939
576.149
584.05
591.625
598.859
605.739
612.25
618.38
624.118
629.452
634.373
638.873
642.945
646.583
649.782
652.541
654.855
656.725
658.146
659.106
659.726
659.916
659.61
658.781
657.545
655.987
654.008
651.649
648.914
645.82
642.381
638.611
634.527
630.154
625.511
620.595
615.426
610.017
604.383
598.538
592.498
586.275
579.884
573.336
566.645
559.822
552.88
545.826
538.674
531.433
524.112
516.722
509.277
501.795
494.335
487.407
483.59
481.228
478.966
476.678
474.344
471.95
469.479
466.9
464.166
461.186
457.786
453.508
447.36
421.942
0.86916
0.500978
0.449214
0.466047
0.509437
0.567331
0.635102
0.712492
0.800975
0.901403
1.0139
1.13959
1.28011
1.43729
1.61317
1.81028
2.03207
2.28283
2.5662
2.88436
3.23978
3.63445
4.07076
4.55078
5.07496
5.64005
6.24846
6.90126
7.59823
8.33914
9.12368
9.95151
10.8217
11.7346
12.6872
13.6787
14.7104
15.7838
16.9007
18.0637
19.2755
20.5394
21.8591
23.2381
24.6799
26.1866
27.7575
29.3866
31.0809
32.8393
34.6647
36.5581
38.5215
40.5561
42.6636
44.8452
47.1024
49.4362
51.8478
54.3384
56.9086
59.5594
62.2914
65.1052
68.0009
70.9788
74.0389
77.1812
80.4052
83.7106
87.0966
90.5623
94.1066
97.7282
101.426
105.197
109.04
112.954
116.934
120.979
125.086
129.251
133.471
137.743
142.061
146.421
150.82
155.251
159.71
164.19
168.685
173.188
177.691
182.187
186.667
191.123
195.548
199.937
204.292
208.624
212.963
217.359
221.681
225.949
230.15
234.281
238.331
242.296
246.168
249.94
253.606
257.158
260.59
263.896
267.07
270.106
272.998
275.742
278.333
280.766
283.037
285.143
287.081
288.847
290.441
291.859
293.101
294.167
295.056
295.769
296.318
296.684
296.857
296.834
296.644
296.314
295.815
295.161
294.354
293.397
292.295
291.053
289.679
288.179
286.558
284.819
282.969
281.014
278.959
276.81
274.572
272.25
269.851
267.379
264.84
262.237
259.576
256.86
254.095
251.284
248.431
245.541
242.62
239.677
236.74
233.94
231.74
229.883
228.088
226.293
224.484
222.655
220.801
218.92
217.005
215.054
213.044
211.037
208.928
205.193
1.80618
0.872038
0.690434
0.657019
0.674203
0.719148
0.784028
0.866097
0.965327
1.08248
1.21839
1.37397
1.55012
1.74779
1.96804
2.21222
2.48193
2.77899
3.10512
3.46087
3.84558
4.25914
4.70154
5.17295
5.6742
6.20795
6.77344
7.37034
7.99894
8.65985
9.354
10.0829
10.8412
11.6205
12.4321
13.2797
14.1647
15.0888
16.0536
17.0606
18.1113
19.2071
20.3494
21.5396
22.7785
24.0671
25.4062
26.7954
28.2363
29.7298
31.277
32.879
34.5368
36.2515
38.0238
39.8548
41.7453
43.696
45.7076
47.7809
49.9163
52.1144
54.3758
56.7005
59.0887
61.5402
64.0552
66.6334
69.2747
71.9785
74.7443
77.5715
80.4592
83.4065
86.4121
89.4747
92.593
95.7651
98.9893
102.264
105.586
108.953
112.363
115.813
119.3
122.82
126.37
129.947
133.546
137.162
140.793
144.432
148.076
151.719
155.358
158.988
162.607
166.214
169.809
173.396
176.98
180.548
184.073
187.554
190.982
194.354
197.664
200.904
204.071
207.157
210.158
213.068
215.882
218.595
221.201
223.695
226.074
228.333
230.467
232.474
234.35
236.091
237.696
239.161
240.486
241.668
242.707
243.603
244.354
244.962
245.428
245.746
245.899
245.915
245.787
245.536
245.151
244.637
243.997
243.233
242.349
241.352
240.244
239.03
237.716
236.305
234.802
233.211
231.537
229.785
227.959
226.064
224.104
222.083
220.005
217.875
215.695
213.471
211.204
208.899
206.56
204.189
201.793
199.378
196.962
194.607
192.458
190.455
188.498
186.548
184.594
182.63
180.657
178.675
176.691
174.714
172.759
170.925
169.222
167.569
2.74093
1.22922
0.952242
0.889333
0.896499
0.94118
1.01248
1.10664
1.22271
1.36086
1.52159
1.70538
1.91253
2.14316
2.3973
2.67501
2.97633
3.30137
3.65011
4.02233
4.41776
4.83638
5.27849
5.74468
6.23587
6.7531
7.29698
7.86815
8.46726
9.09484
9.75101
10.4351
11.1512
11.9062
12.6976
13.5256
14.3912
15.2959
16.2409
17.228
18.257
19.3288
20.4441
21.6036
22.8075
24.0552
25.3477
26.6875
28.0759
29.5139
31.0025
32.5426
34.1352
35.7813
37.4818
39.2375
41.0494
42.9182
44.8446
46.8293
48.8729
50.9759
53.1388
55.3619
57.6457
59.9903
62.3958
64.8624
67.3898
69.978
72.6265
75.3351
78.1029
80.9294
83.8136
86.7544
89.7506
92.8007
95.9033
99.0564
102.258
105.506
108.799
112.132
115.505
118.913
122.353
125.822
129.317
132.833
136.368
139.915
143.473
147.036
150.601
154.165
157.725
161.278
164.822
168.356
171.875
175.366
178.818
182.227
185.587
188.891
192.134
195.31
198.412
201.437
204.376
207.227
209.981
212.636
215.185
217.623
219.947
222.151
224.232
226.186
228.009
229.698
231.252
232.667
233.941
235.074
236.064
236.91
237.614
238.174
238.592
238.857
238.959
238.934
238.771
238.476
238.049
237.492
236.81
236.005
235.081
234.044
232.897
231.645
230.292
228.844
227.304
225.678
223.97
222.185
220.328
218.402
216.413
214.364
212.26
210.105
207.903
205.658
203.372
201.05
198.695
196.312
193.904
191.478
189.047
186.646
184.337
182.102
179.902
177.711
175.522
173.332
171.141
168.954
166.775
164.625
162.535
160.599
158.85
157.354
3.55485
1.57857
1.22456
1.13969
1.14049
1.18738
1.26604
1.37124
1.50114
1.65524
1.83347
2.03571
2.26165
2.51073
2.78228
3.07561
3.3901
3.7253
4.08091
4.45684
4.85325
5.27059
5.70961
6.17128
6.65674
7.16716
7.70367
8.26738
8.85937
9.48076
10.1327
10.8165
11.5342
12.2877
13.0775
13.9041
14.7686
15.6716
16.6139
17.596
18.6194
19.6851
20.7939
21.9468
23.1448
24.3893
25.6817
27.0221
28.4114
29.8506
31.3407
32.883
34.4784
36.128
37.8329
39.5941
41.4129
43.2903
45.2272
47.2243
49.2822
51.4019
53.584
55.8293
58.1382
60.5114
62.9492
65.452
68.0199
70.653
73.3513
76.1147
78.9427
81.8348
84.7904
87.8086
90.8883
94.0283
97.2271
100.483
103.794
107.159
110.574
114.037
117.546
121.097
124.687
128.313
131.971
135.657
139.367
143.097
146.842
150.6
154.364
158.131
161.897
165.657
169.407
173.14
176.849
180.527
184.165
187.759
191.3
194.783
198.201
201.547
204.817
208.002
211.097
214.097
216.994
219.783
222.459
225.017
227.451
229.757
231.929
233.965
235.86
237.612
239.216
240.672
241.976
243.127
244.125
244.968
245.656
246.191
246.57
246.777
246.831
246.739
246.5
246.117
245.592
244.929
244.13
243.201
242.144
240.966
239.671
238.264
236.75
235.134
233.421
231.617
229.727
227.756
225.709
223.591
221.407
219.161
216.859
214.504
212.102
209.656
207.17
204.648
202.094
199.512
196.907
194.284
191.654
189.038
186.466
183.937
181.433
178.941
176.456
173.978
171.509
169.056
166.631
164.256
161.964
159.842
157.917
156.205
4.22979
1.90912
1.49386
1.3914
1.38759
1.43622
1.52041
1.6334
1.77241
1.93627
2.12432
2.33597
2.57048
2.82695
3.10443
3.40206
3.71911
4.05519
4.41015
4.78423
5.17794
5.5921
6.02772
6.48602
6.96827
7.47578
8.00986
8.57179
9.16283
9.78427
10.4374
11.1235
11.844
12.6001
13.3926
14.2225
15.0908
15.9982
16.9458
17.9345
18.9655
20.0397
21.1583
22.3223
23.533
24.7914
26.0987
27.456
28.8643
30.3249
31.839
33.408
35.0331
36.7157
38.457
40.2583
42.1209
44.0459
46.0344
48.0881
50.2082
52.3958
54.652
56.978
59.3746
61.8427
64.3831
66.9964
69.6833
72.444
75.2788
78.1879
81.171
84.2279
87.3581
90.5609
93.8352
97.18
100.594
104.075
107.621
111.23
114.9
118.628
122.41
126.244
130.126
134.051
138.016
142.017
146.049
150.107
154.186
158.282
162.389
166.501
170.613
174.719
178.813
182.887
186.933
190.945
194.915
198.834
202.697
206.496
210.223
213.872
217.435
220.905
224.274
227.537
230.687
233.716
236.619
239.39
242.024
244.514
246.855
249.045
251.077
252.949
254.657
256.199
257.572
258.775
259.806
260.665
261.353
261.869
262.208
262.356
262.346
262.17
261.83
261.33
260.673
259.862
258.901
257.796
256.551
255.171
253.663
252.032
250.284
248.425
246.461
244.397
242.239
239.995
237.668
235.265
232.793
230.255
227.657
225.006
222.304
219.558
216.772
213.949
211.096
208.215
205.311
202.391
199.463
196.542
193.644
190.773
187.922
185.087
182.265
179.458
176.669
173.909
171.191
168.539
165.989
163.613
161.424
159.372
4.78191
2.21327
1.75008
1.63216
1.62351
1.67207
1.75886
1.87574
2.01908
2.18706
2.37858
2.59272
2.82856
3.08515
3.36156
3.65703
3.97103
4.30335
4.65411
5.02377
5.41307
5.82299
6.25469
6.70944
7.18855
7.69337
8.22524
8.78547
9.37538
9.99627
10.6494
11.3361
12.0575
12.8148
13.6092
14.4416
15.3132
16.225
17.1783
18.174
19.2136
20.2981
21.4289
22.6071
23.8342
25.1114
26.4403
27.8221
29.2584
30.7506
32.3004
33.9093
35.579
37.3111
39.1072
40.9691
42.8982
44.8965
46.9654
49.1067
51.3222
53.6134
55.9818
58.4289
60.9562
63.5648
66.256
69.0307
71.89
74.8346
77.8649
80.9813
84.184
87.4729
90.8476
94.3076
97.8518
101.479
105.188
108.977
112.844
116.786
120.8
124.884
129.034
133.246
137.517
141.84
146.213
150.63
155.085
159.573
164.088
168.624
173.175
177.734
182.293
186.846
191.385
195.901
200.387
204.833
209.232
213.575
217.854
222.061
226.187
230.224
234.164
237.998
241.719
245.319
248.791
252.126
255.319
258.361
261.247
263.971
266.528
268.911
271.116
273.14
274.979
276.63
278.09
279.358
280.432
281.312
281.998
282.49
282.776
282.864
282.769
282.486
282.02
281.373
280.55
279.555
278.393
277.069
275.589
273.96
272.187
270.278
268.24
266.079
263.802
261.415
258.927
256.343
253.67
250.916
248.086
245.186
242.224
239.204
236.133
233.015
229.858
226.664
223.44
220.19
216.92
213.635
210.342
207.053
203.779
200.526
197.292
194.078
190.884
187.713
184.573
181.472
178.427
175.463
172.613
169.938
167.432
164.996
5.57474
2.5524
2.00492
1.85947
1.8404
1.88458
1.97007
2.0869
2.23038
2.39805
2.58843
2.80041
3.03302
3.28539
3.55678
3.84662
4.1546
4.48073
4.82532
5.18895
5.57248
5.97693
6.40349
6.85341
7.32798
7.82852
8.35635
8.91282
9.49926
10.117
10.7673
11.4516
12.171
12.9269
13.7205
14.5531
15.4259
16.3403
17.2976
18.2992
19.3464
20.4409
21.5839
22.7772
24.0221
25.3204
26.6738
28.0842
29.5535
31.0835
32.6762
34.3337
36.0579
37.8509
39.7148
41.6518
43.6639
45.7534
47.9224
50.1732
52.5079
54.9285
57.4371
60.0358
62.7263
65.5105
68.39
71.3661
74.4404
77.6137
80.8871
84.2612
87.7362
91.3124
94.9896
98.767
102.644
106.619
110.691
114.858
119.117
123.465
127.9
132.417
137.013
141.684
146.424
151.228
156.091
161.006
165.969
170.97
176.005
181.065
186.142
191.229
196.317
201.397
206.461
211.498
216.5
221.457
226.359
231.197
235.962
240.643
245.232
249.719
254.095
258.35
262.475
266.462
270.301
273.985
277.506
280.855
284.026
287.013
289.808
292.406
294.802
296.992
298.971
300.737
302.287
303.619
304.731
305.624
306.297
306.751
306.968
306.977
306.77
306.354
305.732
304.907
303.884
302.668
301.265
299.681
297.923
295.998
293.915
291.679
289.3
286.786
284.143
281.381
278.507
275.529
272.454
269.291
266.046
262.728
259.343
255.898
252.4
248.855
245.269
241.648
237.999
234.326
230.635
226.932
223.224
219.52
215.829
212.158
208.51
204.886
201.29
197.728
194.207
190.739
187.339
184.033
180.85
177.842
174.985
172.15
6.79211
2.95782
2.26342
2.07072
2.03281
2.06716
2.14727
2.26049
2.40079
2.56498
2.75118
2.95812
3.18485
3.43062
3.69485
3.97719
4.27753
4.59602
4.93307
5.28933
5.66568
6.06317
6.48294
6.92625
7.39434
7.88842
8.40971
8.95967
9.53974
10.1513
10.7958
11.4746
12.1892
12.9409
13.7311
14.5614
15.4333
16.3483
17.308
18.314
19.3682
20.4721
21.6277
22.8367
24.1009
25.4219
26.8023
28.2446
29.7512
31.3244
32.9667
34.6806
36.4685
38.3331
40.2769
42.3027
44.4132
46.6111
48.8992
51.2802
53.7569
56.332
59.008
61.7876
64.673
67.6667
70.7707
73.987
77.3173
80.763
84.3255
88.0055
91.8036
95.7202
99.755
103.908
108.177
112.562
117.06
121.67
126.388
131.211
136.135
141.157
146.271
151.473
156.756
162.114
167.54
173.029
178.571
184.159
189.784
195.438
201.112
206.796
212.479
218.153
223.806
229.427
235.006
240.532
245.993
251.38
256.681
261.886
266.983
271.962
276.812
281.523
286.085
290.487
294.721
298.776
302.644
306.317
309.786
313.044
316.085
318.901
321.489
323.841
325.956
327.828
329.456
330.837
331.97
332.856
333.496
333.881
334.014
333.907
333.56
332.978
332.165
331.125
329.864
328.387
326.702
324.816
322.737
320.472
318.032
315.423
312.657
309.741
306.685
303.498
300.189
296.767
293.241
289.619
285.911
282.124
278.267
274.348
270.374
266.354
262.293
258.2
254.079
249.939
245.784
241.621
237.457
233.301
229.159
225.041
220.95
216.891
212.869
208.892
204.967
201.108
197.33
193.658
190.118
186.751
183.521
180.28
8.01456
3.34891
2.49962
2.25438
2.19388
2.21514
2.28699
2.39401
2.52878
2.68737
2.86749
3.06773
3.28714
3.52504
3.781
4.05482
4.34651
4.65636
4.98483
5.3325
5.70013
6.08892
6.50009
6.93499
7.3951
7.88224
8.39669
8.93985
9.51313
10.118
10.7559
11.4284
12.137
12.8833
13.669
14.4957
15.3652
16.2793
17.2398
18.2488
19.3083
20.4204
21.5872
22.8112
24.0949
25.4414
26.8527
28.3316
29.8814
31.505
33.2054
34.9857
36.8489
38.7982
40.8368
42.9681
45.1954
47.5222
49.9518
52.4876
55.133
57.8915
60.7661
63.7601
66.8765
70.1181
73.4875
76.9871
80.6191
84.3853
88.2871
92.3258
96.5019
100.816
105.267
109.856
114.58
119.438
124.428
129.548
134.793
140.159
145.643
151.239
156.941
162.743
168.638
174.619
180.677
186.805
192.993
199.231
205.51
211.82
218.149
224.486
230.82
237.139
243.431
249.684
255.884
262.02
268.08
274.051
279.921
285.677
291.308
296.801
302.145
307.328
312.338
317.165
321.798
326.227
330.442
334.434
338.194
341.714
344.988
348.008
350.768
353.263
355.49
357.444
359.122
360.524
361.648
362.495
363.064
363.349
363.361
363.101
362.573
361.783
360.738
359.441
357.899
356.118
354.107
351.875
349.429
346.779
343.937
340.91
337.711
334.348
330.833
327.176
323.387
319.476
315.454
311.33
307.114
302.816
298.445
294.01
289.521
284.985
280.41
275.805
271.176
266.532
261.878
257.222
252.57
247.931
243.313
238.723
234.167
229.652
225.185
220.773
216.427
212.159
207.986
203.929
200.012
196.268
192.652
189.007
9.16619
3.70211
2.70244
2.40471
2.32039
2.32701
2.38887
2.48802
2.61573
2.76737
2.9403
3.13292
3.34425
3.57367
3.8208
4.0854
4.3677
4.66821
4.98772
5.32745
5.68758
6.06889
6.47244
6.89937
7.35083
7.82775
8.33145
8.86372
9.42619
10.0205
10.6483
11.3113
12.0112
12.7499
13.5294
14.3516
15.2186
16.1326
17.0958
18.1107
19.1797
20.3054
21.4904
22.7376
24.0494
25.4283
26.8767
28.4
30.0028
31.6885
33.4606
35.3227
37.2786
39.3319
41.4867
43.7471
46.1171
48.6008
51.2024
53.9261
56.7759
59.7559
62.8699
66.1218
69.5151
73.0532
76.7391
80.5758
84.5656
88.7106
93.0124
97.4723
102.091
106.868
111.804
116.898
122.147
127.55
133.104
138.805
144.649
150.631
156.745
162.986
169.345
175.816
182.391
189.059
195.812
202.64
209.532
216.477
223.462
230.477
237.508
244.542
251.566
258.567
265.531
272.443
279.291
286.059
292.735
299.304
305.752
312.066
318.233
324.239
330.072
335.718
341.165
346.402
351.416
356.197
360.735
365.019
369.04
372.791
376.263
379.449
382.344
384.942
387.239
389.232
390.917
392.294
393.362
394.121
394.573
394.715
394.554
394.09
393.331
392.286
390.959
389.356
387.485
385.352
382.968
380.342
377.483
374.403
371.113
367.623
363.946
360.094
356.077
351.908
347.598
343.159
338.601
333.936
329.176
324.329
319.409
314.424
309.384
304.3
299.18
294.033
288.867
283.69
278.511
273.336
268.172
263.029
257.913
252.833
247.797
242.812
237.886
233.027
228.247
223.558
218.977
214.523
210.217
206.086
202.078
198.034
10.2102
4.00856
2.86861
2.52094
2.41223
2.40423
2.45509
2.54535
2.66505
2.80896
2.97406
3.15852
3.36135
3.58212
3.82082
4.07799
4.3529
4.64581
4.9571
5.28705
5.63636
6.00641
6.3984
6.81352
7.25299
7.71822
8.21106
8.73292
9.28543
9.87031
10.4894
11.1447
11.8381
12.5719
13.3482
14.1695
15.0381
15.9567
16.9281
17.955
19.0404
20.1872
21.3992
22.6793
24.03
25.4537
26.9549
28.5403
30.2141
31.9816
33.8481
35.8173
37.8937
40.0816
42.386
44.8116
47.3633
50.0461
52.8649
55.8246
58.93
62.1858
65.5966
69.1666
72.9001
76.8007
80.8719
85.1167
89.5378
94.1371
98.9163
103.876
109.018
114.34
119.842
125.523
131.379
137.409
143.607
149.97
156.491
163.165
169.985
176.942
184.029
191.235
198.551
205.967
213.47
221.049
228.692
236.385
244.115
251.868
259.629
267.384
275.118
282.815
290.46
298.037
305.532
312.928
320.21
327.363
334.371
341.221
347.898
354.386
360.673
366.745
372.588
378.189
383.537
388.621
393.428
397.95
402.176
406.098
409.709
413.001
415.968
418.605
420.909
422.876
424.504
425.792
426.74
427.349
427.62
427.558
427.162
426.431
425.383
424.023
422.358
420.394
418.139
415.602
412.793
409.723
406.403
402.845
399.062
395.066
390.869
386.486
381.928
377.21
372.342
367.339
362.212
356.975
351.638
346.215
340.716
335.153
329.538
323.881
318.192
312.481
306.757
301.03
295.306
289.595
283.905
278.243
272.618
267.038
261.513
256.05
250.657
245.345
240.125
235.01
230.015
225.159
220.458
215.935
211.536
207.106
11.1251
4.26473
2.99811
2.6045
2.47193
2.44976
2.48942
2.57033
2.68144
2.81726
2.97478
3.15258
3.34885
3.56278
3.79385
4.04138
4.30597
4.58815
4.88846
5.20765
5.54688
5.90698
6.28905
6.69434
7.12424
7.58028
8.06414
8.57757
9.12243
9.70072
10.3146
10.9662
11.6582
12.3928
13.1727
14.0007
14.8798
15.8131
16.8045
17.8568
18.9731
20.1567
21.4104
22.7365
24.1419
25.6328
27.2149
28.8933
30.6731
32.5601
34.5606
36.6796
38.9226
41.2949
43.8023
46.4506
49.2456
52.1929
55.2982
58.5671
62.0051
65.6174
69.4091
73.3849
77.549
81.9055
86.4577
91.2086
96.1605
101.315
106.674
112.236
118.002
123.971
130.14
136.507
143.067
149.818
156.752
163.864
171.147
178.593
186.193
193.937
201.814
209.815
217.926
226.135
234.428
242.793
251.214
259.677
268.165
276.664
285.157
293.627
302.058
310.433
318.735
326.948
335.053
343.036
350.878
358.563
366.077
373.402
380.523
387.426
394.095
400.517
406.677
412.563
418.162
423.462
428.453
433.124
437.466
441.47
445.129
448.437
451.386
453.974
456.196
458.05
459.534
460.648
461.393
461.771
461.783
461.443
460.726
459.66
458.252
456.511
454.442
452.053
449.355
446.356
443.068
439.503
435.673
431.59
427.27
422.725
417.97
413.018
407.885
402.583
397.128
391.532
385.81
379.975
374.039
368.017
361.92
355.762
349.554
343.309
337.037
330.75
324.457
318.169
311.893
305.639
299.415
293.23
287.093
281.012
274.997
269.056
263.198
257.435
251.777
246.237
240.83
235.572
230.478
225.568
220.785
215.985
11.9056
4.47181
3.09324
2.65845
2.50384
2.46807
2.49681
2.56908
2.67331
2.80274
2.95355
3.12314
3.3106
3.5154
3.73722
3.97618
4.23248
4.50643
4.79861
5.10978
5.44094
5.79317
6.16773
6.56605
6.98971
7.44044
7.92007
8.43058
8.97417
9.55318
10.1701
10.8279
11.5297
12.2782
13.0762
13.9271
14.8343
15.8008
16.8289
17.9225
19.0876
20.3294
21.6537
23.0662
24.5724
26.1786
27.8909
29.7157
31.6594
33.7291
35.9314
38.2726
40.7593
43.3985
46.1972
49.1619
52.2991
55.6153
59.1165
62.8088
66.6981
70.7897
75.0887
79.5997
84.3267
89.2732
94.4421
99.8354
105.455
111.3
117.372
123.669
130.189
136.93
143.887
151.056
158.432
166.007
173.775
181.728
189.855
198.147
206.592
215.18
223.897
232.73
241.665
250.688
259.783
268.934
278.126
287.341
296.562
305.772
314.953
324.088
333.158
342.145
351.031
359.799
368.43
376.907
385.212
393.329
401.24
408.93
416.382
423.582
430.514
437.163
443.517
449.562
455.285
460.675
465.722
470.416
474.747
478.708
482.291
485.491
488.303
490.722
492.746
494.374
495.604
496.439
496.875
496.921
496.592
495.858
494.741
493.254
491.407
489.208
486.662
483.781
480.575
477.054
473.231
469.118
464.728
460.076
455.177
450.045
444.695
439.144
433.406
427.496
421.429
415.221
408.885
402.436
395.888
389.255
382.551
375.79
368.984
362.146
355.289
348.424
341.563
334.714
327.889
321.096
314.344
307.642
301
294.426
287.93
281.521
275.209
269.004
262.918
256.964
251.154
245.505
240.028
234.743
229.591
224.443
12.5283
4.62386
3.1541
2.68557
2.51232
2.4652
2.48548
2.54985
2.6456
2.76676
2.9097
3.07238
3.25343
3.45208
3.668
3.90119
4.15192
4.42064
4.70802
5.01494
5.34251
5.69203
6.06498
6.46311
6.8885
7.34326
7.82932
8.34911
8.90526
9.50058
10.1379
10.82
11.5487
12.3277
13.1622
14.0566
15.0156
16.0443
17.1486
18.3334
19.6044
20.9678
22.4306
23.9999
25.6825
27.4857
29.417
31.4838
33.694
36.0556
38.5761
41.2635
44.126
47.1722
50.4104
53.8478
57.4909
61.3459
65.4189
69.7157
74.2414
79.0009
83.9982
89.2368
94.7194
100.448
106.423
112.646
119.114
125.828
132.784
139.979
147.408
155.065
162.946
171.042
179.345
187.846
196.536
205.403
214.435
223.621
232.947
242.398
251.962
261.621
271.36
281.164
291.014
300.895
310.787
320.673
330.535
340.355
350.113
359.792
369.372
378.834
388.161
397.334
406.335
415.146
423.749
432.127
440.264
448.144
455.75
463.067
470.082
476.78
483.148
489.172
494.842
500.146
505.075
509.619
513.771
517.523
520.868
523.803
526.323
528.424
530.107
531.368
532.211
532.638
532.64
532.258
531.439
530.217
528.601
526.6
524.224
521.483
518.384
514.939
511.158
507.054
502.64
497.928
492.934
487.671
482.157
476.406
470.434
464.259
457.896
451.362
444.671
437.84
430.883
423.817
416.655
409.413
402.104
394.745
387.347
379.926
372.493
365.063
357.645
350.251
342.891
335.575
328.313
321.113
313.985
306.938
299.982
293.126
286.38
279.755
273.261
266.913
260.721
254.7
248.859
243.219
237.72
232.255
13.0787
4.74481
3.19227
2.69383
2.50487
2.44696
2.45729
2.51351
2.60307
2.71909
2.85766
3.01651
3.19429
3.39029
3.60426
3.83639
4.08736
4.35757
4.64784
4.95934
5.29349
5.65193
6.03646
6.44895
6.89112
7.36415
7.87201
8.41821
9.00629
9.64
10.3234
11.0609
11.8579
12.7191
13.6497
14.6554
15.7427
16.9184
18.19
19.5645
21.0497
22.6536
24.385
26.2524
28.2647
30.4308
32.7596
35.26
37.9407
40.8093
43.8738
47.1446
50.6315
54.3449
58.2969
62.4927
66.936
71.6311
76.5819
81.792
87.2642
93.0007
99.0026
105.27
111.803
118.599
125.657
132.972
140.539
148.355
156.412
164.704
173.222
181.957
190.901
200.043
209.372
218.875
228.541
238.355
248.305
258.376
268.553
278.819
289.16
299.558
309.997
320.459
330.927
341.382
351.807
362.184
372.494
382.719
392.84
402.838
412.696
422.395
431.917
441.244
450.359
459.245
467.885
476.262
484.36
492.165
499.66
506.833
513.669
520.156
526.28
532.031
537.398
542.371
546.943
551.103
554.846
558.166
561.058
563.518
565.544
567.131
568.285
568.997
569.282
569.135
568.569
567.559
566.132
564.294
562.053
559.42
556.407
553.022
549.275
545.179
540.744
535.985
530.913
525.544
519.891
513.971
507.8
501.394
494.771
487.946
480.938
473.762
466.435
458.973
451.391
443.706
435.933
428.086
420.181
412.233
404.257
396.267
388.276
380.297
372.343
364.425
356.554
348.74
340.992
333.32
325.734
318.241
310.853
303.578
296.427
289.409
282.537
275.821
269.273
262.907
256.729
250.76
244.94
239.194
13.5454
4.83263
3.20943
2.68733
2.4851
2.41903
2.42466
2.47815
2.5665
2.68295
2.82345
2.98558
3.16808
3.37036
3.59225
3.83384
4.09508
4.37705
4.68156
5.01045
5.36576
5.74983
6.16532
6.61523
7.10319
7.63331
8.20936
8.83595
9.51815
10.2615
11.0723
11.9572
12.9237
13.9791
15.1313
16.3888
17.7607
19.2568
20.8869
22.6616
24.5912
26.6865
28.9583
31.4176
34.0749
36.9404
40.0241
43.3357
46.8843
50.6776
54.7236
59.0307
63.6072
68.4613
73.6017
79.0298
84.744
90.743
97.0253
103.589
110.431
117.548
124.935
132.586
140.496
148.657
157.061
165.699
174.563
183.643
192.928
202.408
212.072
221.907
231.902
242.044
252.32
262.717
273.221
283.818
294.493
305.232
316.018
326.838
337.674
348.511
359.332
370.122
380.862
391.538
402.13
412.623
423
433.243
443.336
453.261
463.002
472.542
481.865
490.955
499.795
508.371
516.666
524.665
532.355
539.721
546.75
553.43
559.749
565.694
571.255
576.422
581.185
585.537
589.471
592.979
596.055
598.699
600.902
602.664
603.986
604.855
605.3
605.277
604.865
603.972
602.659
600.922
598.767
596.201
593.236
589.883
586.153
582.055
577.6
572.8
567.669
562.218
556.463
550.415
544.092
537.508
530.681
523.627
516.363
508.906
501.274
493.483
485.549
477.49
469.321
461.057
452.714
444.309
435.855
427.368
418.864
410.357
401.86
393.389
384.954
376.567
368.24
359.984
351.806
343.719
335.729
327.847
320.081
312.442
304.938
297.58
290.379
283.345
276.489
269.823
263.352
257.099
251
245.025
13.918
4.88271
3.20789
2.67185
2.46516
2.39946
2.40824
2.46694
2.56219
2.68657
2.83585
3.00856
3.20391
3.42177
3.66259
3.92734
4.21778
4.5356
4.88315
5.2634
5.67977
6.13618
6.6371
7.18764
7.79372
8.46196
9.19917
10.0129
10.9114
11.9038
13.0003
14.2119
15.5501
17.0271
18.6552
20.4473
22.4167
24.5772
26.9427
29.5266
32.3417
35.4004
38.7149
42.2964
46.1546
50.2975
54.7321
59.4651
64.5025
69.8462
75.4978
81.4603
87.7369
94.3292
101.233
108.431
115.915
123.675
131.701
139.982
148.51
157.271
166.254
175.448
184.841
194.42
204.174
214.09
224.157
234.363
244.696
255.143
265.693
276.334
287.055
297.843
308.686
319.573
330.49
341.426
352.368