/*--------------------------------*- C++ -*----------------------------------*\
| =========                 |                                                 |
| \\      /  F ield         | OpenFOAM: The Open Source CFD Toolbox           |
|  \\    /   O peration     | Version:  2406                                  |
|   \\  /    A nd           | Website:  www.openfoam.com                      |
|    \\/     M anipulation  |                                                 |
\*---------------------------------------------------------------------------*/
FoamFile
{
    version     2.0;
    format      ascii;
    arch        "LSB;label=32;scalar=64";
    class       volScalarField;
    location    "250";
    object      k;
}
// * * * * * * * * * * * * * * * * * * * * * * * * * * * * * * * * * * * * * //

dimensions      [0 2 -2 0 0 0 0];

internalField   nonuniform List<scalar> 
12225
(
0.571498
0.987649
1.28116
1.45558
1.54167
1.57742
1.57566
1.56723
1.54713
1.52372
1.50045
1.478
1.45793
1.43899
1.42336
1.40762
1.39699
1.38221
0.438453
0.496876
0.521953
0.534904
0.542882
0.54741
0.550232
0.552235
0.556005
0.559459
0.565546
0.571159
0.57952
0.586943
0.596724
0.605371
0.615272
0.625297
0.387571
0.41749
0.424189
0.421528
0.415041
0.404967
0.393803
0.382808
0.371934
0.362424
0.353245
0.346108
0.33898
0.33434
0.329113
0.326712
0.323047
0.32235
0.37618
0.384817
0.388124
0.387415
0.385434
0.381137
0.375684
0.369561
0.363115
0.356561
0.350108
0.343801
0.337819
0.33206
0.326777
0.321681
0.317161
0.312714
0.374178
0.375374
0.376396
0.375929
0.374798
0.372507
0.369615
0.366136
0.362484
0.358469
0.354556
0.350369
0.34652
0.342382
0.338792
0.334818
0.331605
0.327842
0.373737
0.372544
0.371997
0.371082
0.369917
0.368266
0.366339
0.364031
0.36164
0.358967
0.356372
0.353536
0.350915
0.348046
0.345519
0.3427
0.340347
0.337623
0.373769
0.371726
0.370231
0.368831
0.367465
0.36594
0.364344
0.362551
0.360733
0.358749
0.356812
0.35473
0.352769
0.350664
0.348747
0.34667
0.344851
0.342828
0.373818
0.371563
0.369621
0.36786
0.36625
0.364663
0.363121
0.361521
0.359944
0.358297
0.356694
0.355025
0.353428
0.351768
0.350212
0.348586
0.347102
0.345522
0.373833
0.371554
0.369457
0.36751
0.365722
0.364025
0.362428
0.360861
0.359354
0.357851
0.3564
0.354942
0.35354
0.352129
0.350784
0.349424
0.348147
0.346841
0.373832
0.37156
0.369425
0.36741
0.365529
0.363752
0.362086
0.360492
0.35898
0.357515
0.356115
0.354747
0.353436
0.35215
0.350918
0.349705
0.348549
0.347403
0.37383
0.371561
0.369417
0.367384
0.365468
0.363652
0.361942
0.360316
0.358778
0.357309
0.355911
0.354569
0.353288
0.352053
0.350871
0.349728
0.348634
0.347573
0.373828
0.371559
0.369412
0.367375
0.365448
0.363619
0.361889
0.360247
0.35869
0.357209
0.355802
0.354459
0.35318
0.351957
0.350789
0.349669
0.348598
0.34757
0.373827
0.371557
0.369407
0.367369
0.365437
0.363603
0.361865
0.360213
0.358646
0.357156
0.355739
0.35439
0.353107
0.351883
0.350715
0.349601
0.348536
0.34752
0.373827
0.371555
0.369403
0.367362
0.365428
0.363591
0.361848
0.360192
0.358619
0.357123
0.3557
0.354345
0.353056
0.351828
0.350656
0.34954
0.348474
0.347458
0.373826
0.371553
0.369399
0.367357
0.36542
0.363581
0.361835
0.360176
0.358599
0.3571
0.355673
0.354314
0.353021
0.351788
0.350613
0.349493
0.348424
0.347405
0.373826
0.371552
0.369396
0.367352
0.365413
0.363572
0.361824
0.360163
0.358584
0.357081
0.355652
0.35429
0.352994
0.351758
0.35058
0.349457
0.348385
0.347363
0.373825
0.371551
0.369394
0.367349
0.365408
0.363566
0.361816
0.360152
0.358571
0.357067
0.355635
0.354271
0.352972
0.351735
0.350555
0.349429
0.348355
0.347331
0.373825
0.371551
0.369393
0.367347
0.365405
0.363561
0.36181
0.360145
0.358562
0.357056
0.355623
0.354258
0.352957
0.351718
0.350536
0.349409
0.348334
0.347308
0.373825
0.371551
0.369393
0.367347
0.365404
0.36356
0.361808
0.360143
0.358559
0.357052
0.355618
0.354252
0.35295
0.35171
0.350527
0.3494
0.348323
0.347296
0.373825
0.371551
0.369394
0.367348
0.365406
0.363562
0.361811
0.360146
0.358562
0.357056
0.355622
0.354256
0.352955
0.351715
0.350532
0.349405
0.348329
0.347302
0.373826
0.371552
0.369396
0.367351
0.36541
0.363567
0.361816
0.360152
0.35857
0.357065
0.355633
0.354268
0.352969
0.35173
0.35055
0.349423
0.348349
0.347323
0.373826
0.371553
0.369398
0.367355
0.365416
0.363575
0.361828
0.360168
0.358591
0.357091
0.355664
0.354306
0.353012
0.351779
0.350602
0.34948
0.348408
0.347383
0.373826
0.371555
0.369401
0.367363
0.365432
0.363605
0.361875
0.360237
0.358681
0.357203
0.355794
0.354451
0.353167
0.351939
0.350762
0.349635
0.348552
0.347513
0.373827
0.371555
0.369413
0.367418
0.365544
0.363793
0.362138
0.360572
0.359071
0.357632
0.35624
0.354896
0.353589
0.352323
0.35109
0.349894
0.348729
0.347601
0.373819
0.371564
0.369582
0.367846
0.366223
0.364712
0.363219
0.361753
0.360266
0.358787
0.357288
0.3558
0.354306
0.352833
0.351361
0.349924
0.348495
0.34711
0.373767
0.371946
0.370916
0.369978
0.368912
0.367767
0.366326
0.364737
0.362933
0.361062
0.35906
0.357054
0.354971
0.352925
0.350845
0.348825
0.346792
0.344839
0.374093
0.3752
0.37726
0.377562
0.377091
0.375807
0.373488
0.370864
0.367802
0.364686
0.361328
0.358027
0.354602
0.351291
0.347923
0.3447
0.341472
0.338414
0.377677
0.394076
0.402944
0.402354
0.400308
0.396046
0.390665
0.385166
0.379132
0.373302
0.367221
0.361475
0.355719
0.350305
0.345128
0.340198
0.335726
0.331324
0.405777
0.438976
0.451187
0.455808
0.459109
0.462259
0.464969
0.467226
0.46922
0.47084
0.472486
0.473922
0.47554
0.477066
0.479203
0.480826
0.483664
0.485377
0.479011
0.684926
0.865145
0.990809
1.09437
1.17584
1.23938
1.28342
1.31504
1.33208
1.34321
1.34355
1.34143
1.33632
1.32786
1.31776
1.30684
1.2954
0.00276626
0.00456102
0.00652358
0.0083298
0.00987769
0.0111727
0.0122506
0.0131504
0.0139608
0.0147417
0.0155022
0.0162683
0.017063
0.017899
0.0187802
0.0197114
0.0207176
0.0218811
0.0233291
0.0250485
0.0269722
0.0290834
0.0313945
0.0339294
0.0367126
0.0397621
0.0430792
0.0466653
0.0505168
0.0546294
0.0589983
0.0635927
0.0683954
0.07339
0.0785595
0.0838864
0.0893604
0.0949734
0.100719
0.106597
0.112607
0.118759
0.125066
0.131553
0.138254
0.145224
0.152541
0.159928
0.167511
0.175234
0.183127
0.191179
0.199398
0.207783
0.216337
0.22506
0.233954
0.243019
0.252256
0.261664
0.271243
0.280993
0.290911
0.300996
0.311246
0.321658
0.332228
0.342953
0.353828
0.364848
0.376008
0.387303
0.398725
0.410268
0.421923
0.433684
0.445541
0.457486
0.469509
0.481602
0.493751
0.505949
0.518183
0.530442
0.542713
0.554985
0.567243
0.579476
0.591668
0.603806
0.615873
0.627852
0.639726
0.651475
0.663076
0.674507
0.68574
0.696753
0.707522
0.718044
0.728348
0.738514
0.748393
0.758047
0.767439
0.776571
0.785422
0.793986
0.802246
0.810193
0.817814
0.825098
0.832035
0.838614
0.844827
0.850665
0.856118
0.861182
0.865847
0.87011
0.873965
0.877409
0.880437
0.883049
0.885242
0.887017
0.888376
0.889317
0.889841
0.88994
0.889715
0.889088
0.888009
0.886441
0.884516
0.882303
0.879687
0.876726
0.873416
0.869775
0.865815
0.861547
0.856988
0.852157
0.84707
0.841727
0.836144
0.830332
0.824306
0.818076
0.811656
0.805057
0.798292
0.79137
0.784305
0.777104
0.769779
0.762339
0.754793
0.747148
0.739415
0.731601
0.723721
0.715788
0.707857
0.700382
0.695821
0.692711
0.689707
0.686686
0.683628
0.68052
0.677347
0.67408
0.670673
0.667039
0.663008
0.658135
0.651426
0.625946
0.00684884
0.0107386
0.0150885
0.0185636
0.0214846
0.0240623
0.0264237
0.0286537
0.0308151
0.0329902
0.0352671
0.0376997
0.040314
0.0431156
0.0460994
0.0492602
0.0525999
0.0561287
0.0598589
0.0638011
0.0679672
0.0723729
0.0770397
0.0819928
0.0872572
0.0928529
0.0987898
0.105075
0.111711
0.118699
0.126035
0.133718
0.141748
0.150122
0.158829
0.167843
0.17716
0.186777
0.196693
0.206905
0.217413
0.228219
0.239323
0.250727
0.26243
0.274434
0.286732
0.299311
0.312187
0.32536
0.338837
0.352622
0.36672
0.381135
0.395871
0.410933
0.426323
0.442046
0.458104
0.4745
0.491236
0.508312
0.52573
0.543491
0.561592
0.580034
0.598813
0.617927
0.637372
0.657143
0.677234
0.69764
0.718352
0.739362
0.760661
0.782238
0.804082
0.826182
0.848523
0.871093
0.893875
0.916853
0.940012
0.963332
0.986795
1.01038
1.03407
1.05784
1.08167
1.10553
1.1294
1.15325
1.17706
1.20079
1.22441
1.24789
1.27118
1.29425
1.31703
1.33946
1.36147
1.38301
1.40425
1.42515
1.44571
1.46588
1.48566
1.505
1.52389
1.5423
1.5602
1.57757
1.59438
1.61062
1.62625
1.64126
1.65563
1.66933
1.68235
1.69468
1.70629
1.71717
1.72732
1.73672
1.74536
1.75324
1.76035
1.76669
1.77226
1.77707
1.78114
1.78445
1.78703
1.7886
1.78938
1.78964
1.78913
1.78793
1.78602
1.78345
1.78022
1.77635
1.77187
1.76681
1.76117
1.75499
1.74828
1.74107
1.73338
1.72524
1.71666
1.70767
1.69829
1.68854
1.67844
1.66801
1.65727
1.64624
1.63493
1.62337
1.61155
1.59951
1.58725
1.5748
1.56217
1.54952
1.53731
1.52529
1.51317
1.50092
1.48853
1.47598
1.46327
1.45037
1.43723
1.42379
1.40987
1.39544
1.37892
1.34338
0.0111641
0.017499
0.0233968
0.0279389
0.0317818
0.035255
0.0385432
0.0417705
0.0450328
0.0484089
0.0519608
0.0557298
0.0597377
0.0639908
0.0684868
0.0732211
0.0781919
0.0834019
0.0888581
0.094571
0.100554
0.106825
0.113401
0.120303
0.127552
0.135167
0.143168
0.151571
0.160387
0.169626
0.179293
0.189391
0.199919
0.210871
0.222235
0.234005
0.246178
0.258747
0.271709
0.28506
0.298797
0.312915
0.327412
0.342286
0.357534
0.373152
0.38914
0.405498
0.42223
0.43934
0.456833
0.474713
0.492983
0.511648
0.530711
0.550176
0.570046
0.590323
0.61101
0.632108
0.653619
0.675542
0.697878
0.720625
0.743782
0.767345
0.79131
0.815674
0.84043
0.865572
0.891092
0.916982
0.943232
0.969831
0.996767
1.02403
1.0516
1.07946
1.10761
1.13601
1.16466
1.19353
1.22261
1.25186
1.28127
1.31081
1.34046
1.3702
1.39998
1.42979
1.4596
1.48937
1.51907
1.54867
1.57813
1.60741
1.63649
1.66532
1.69388
1.72211
1.75
1.77754
1.8047
1.83145
1.85775
1.88358
1.90889
1.93366
1.95785
1.98142
2.00435
2.0266
2.04814
2.06894
2.08896
2.10819
2.1266
2.14416
2.16084
2.17663
2.1915
2.20544
2.21843
2.23046
2.24152
2.25159
2.26068
2.26878
2.27589
2.28201
2.28716
2.29134
2.29453
2.2966
2.29759
2.29782
2.29708
2.29544
2.29291
2.2895
2.28525
2.28017
2.2743
2.26766
2.26029
2.2522
2.24343
2.23401
2.22396
2.21332
2.20212
2.19037
2.17812
2.16538
2.15219
2.13857
2.12454
2.11012
2.09534
2.08022
2.06478
2.04904
2.03302
2.01675
2.00025
1.98363
1.96712
1.95062
1.93398
1.91718
1.9002
1.88305
1.86571
1.84819
1.83048
1.81259
1.79442
1.7761
1.75618
1.72473
0.0147535
0.0244331
0.0318045
0.037326
0.041978
0.0461985
0.0502253
0.0542121
0.0582708
0.0624858
0.0669184
0.0716081
0.0765754
0.081826
0.0873569
0.0931624
0.0992389
0.105587
0.112214
0.11913
0.126352
0.133901
0.1418
0.150077
0.158756
0.167861
0.177412
0.187426
0.197914
0.208884
0.220338
0.232274
0.244684
0.257565
0.270914
0.284728
0.299
0.313724
0.328894
0.344506
0.360554
0.377035
0.393946
0.411284
0.429046
0.447233
0.465844
0.484881
0.504349
0.524252
0.544595
0.565381
0.586615
0.608303
0.630447
0.653052
0.676121
0.699658
0.723664
0.748143
0.773095
0.79852
0.82442
0.850792
0.877635
0.904946
0.932721
0.960955
0.989642
1.01878
1.04835
1.07834
1.10876
1.13958
1.1708
1.20239
1.23434
1.26664
1.29927
1.3322
1.36541
1.39889
1.43261
1.46654
1.50066
1.53493
1.56934
1.60384
1.63842
1.67302
1.70763
1.74221
1.77671
1.81111
1.84537
1.87945
1.91331
1.94691
1.98023
2.01322
2.04584
2.07807
2.10986
2.14117
2.17197
2.2022
2.23183
2.26082
2.28913
2.31671
2.34354
2.36956
2.39475
2.41907
2.44248
2.46494
2.48644
2.50694
2.5264
2.54481
2.56214
2.57837
2.59348
2.60745
2.62027
2.63194
2.64244
2.65176
2.65992
2.66691
2.67273
2.6774
2.68091
2.68314
2.6841
2.68412
2.683
2.6808
2.67755
2.67326
2.66796
2.66169
2.65447
2.64634
2.63734
2.62749
2.61682
2.60539
2.59321
2.58032
2.56677
2.55257
2.53777
2.52239
2.50648
2.49005
2.47314
2.45577
2.43798
2.41978
2.40121
2.38228
2.36303
2.34347
2.32366
2.30366
2.2836
2.26346
2.24316
2.22267
2.202
2.18116
2.16016
2.13901
2.11775
2.09645
2.07513
2.05399
2.0318
2.00241
0.0175531
0.0310813
0.0400344
0.0465791
0.0520419
0.0569693
0.0616534
0.0662774
0.0709697
0.075824
0.0809064
0.0862599
0.0919081
0.0978595
0.104114
0.110669
0.117524
0.124682
0.132152
0.139951
0.148099
0.156621
0.165542
0.17489
0.184689
0.194962
0.205724
0.216991
0.22877
0.241066
0.253879
0.26721
0.281054
0.295409
0.310271
0.325635
0.341495
0.357846
0.374683
0.392003
0.409802
0.428075
0.446822
0.466041
0.485731
0.505895
0.526533
0.547651
0.569254
0.591345
0.61393
0.637015
0.660605
0.684705
0.70932
0.734456
0.760116
0.786305
0.813026
0.840283
0.868076
0.896408
0.92528
0.95469
0.984638
1.01512
1.04614
1.07768
1.10974
1.14232
1.17541
1.20899
1.24305
1.27759
1.31259
1.34802
1.38388
1.42015
1.4568
1.49381
1.53116
1.56883
1.60678
1.64498
1.68342
1.72205
1.76084
1.79976
1.83878
1.87785
1.91693
1.956
1.995
2.0339
2.07266
2.11123
2.14957
2.18765
2.22541
2.26281
2.29981
2.33636
2.37241
2.40792
2.44284
2.47712
2.51072
2.54358
2.57567
2.60694
2.63734
2.66682
2.69535
2.72289
2.74939
2.77481
2.79912
2.82229
2.84428
2.86507
2.88462
2.90291
2.91991
2.93562
2.95002
2.96308
2.97481
2.9852
2.99425
3.00195
3.00832
3.01337
3.01707
3.01933
3.0202
3.01991
3.01834
3.01553
3.0115
3.00627
2.9999
2.9924
2.98381
2.97418
2.96353
2.95192
2.93938
2.92594
2.91165
2.89655
2.88068
2.86408
2.84678
2.82883
2.81026
2.7911
2.7714
2.75118
2.73047
2.70931
2.68773
2.66575
2.64339
2.62071
2.59773
2.57451
2.55115
2.52763
2.50394
2.48006
2.456
2.43179
2.40745
2.38302
2.35859
2.33426
2.31016
2.28648
2.26222
2.23304
0.0197141
0.0372805
0.0478204
0.0553926
0.0616541
0.0672536
0.0725329
0.0777032
0.0829099
0.0882577
0.0938216
0.0996518
0.105779
0.11222
0.118981
0.126067
0.133481
0.141234
0.149338
0.157811
0.166676
0.175958
0.185681
0.19587
0.206547
0.217728
0.22943
0.241661
0.25443
0.26774
0.281592
0.295986
0.310919
0.326391
0.342397
0.358935
0.376
0.39359
0.411702
0.430334
0.449483
0.469151
0.489335
0.510039
0.531263
0.553012
0.575288
0.598097
0.621445
0.645337
0.66978
0.694781
0.720345
0.746481
0.773194
0.800491
0.828377
0.856858
0.885938
0.915622
0.945914
0.976816
1.00833
1.04046
1.0732
1.10655
1.14051
1.17507
1.21023
1.24599
1.28233
1.31924
1.35672
1.39474
1.4333
1.47238
1.51195
1.55199
1.59249
1.63342
1.67475
1.71645
1.75849
1.80085
1.84348
1.88635
1.92943
1.97267
2.01603
2.05948
2.10296
2.14644
2.18986
2.23319
2.27638
2.31937
2.36212
2.40457
2.44668
2.4884
2.52967
2.57043
2.61064
2.65024
2.68917
2.7274
2.76486
2.80149
2.83726
2.8721
2.90597
2.93881
2.97058
3.00123
3.03071
3.05899
3.08602
3.11177
3.13619
3.15925
3.18093
3.20118
3.22
3.23736
3.25324
3.26762
3.2805
3.29186
3.30171
3.31006
3.3169
3.32223
3.32606
3.32827
3.32899
3.32834
3.32624
3.32274
3.31787
3.31165
3.30413
3.29534
3.28533
3.27413
3.2618
3.24836
3.23388
3.2184
3.20195
3.18459
3.16636
3.14731
3.12749
3.10692
3.08567
3.06376
3.04124
3.01815
2.99453
2.9704
2.9458
2.92077
2.89534
2.86954
2.84343
2.81704
2.79045
2.76366
2.73669
2.70954
2.68223
2.65479
2.62727
2.59975
2.57233
2.54515
2.51839
2.49227
2.46586
2.43573
0.0213934
0.0428788
0.0549191
0.0634743
0.0704934
0.0767173
0.082532
0.088174
0.0938048
0.0995412
0.105468
0.111646
0.118116
0.124903
0.132024
0.139492
0.147317
0.155513
0.164095
0.173084
0.182501
0.192368
0.202707
0.213539
0.224882
0.23675
0.249157
0.262111
0.275618
0.289682
0.304305
0.319488
0.335231
0.351534
0.368396
0.385816
0.403792
0.422325
0.441415
0.461061
0.481265
0.50203
0.523356
0.545249
0.567713
0.590751
0.614371
0.638579
0.663382
0.688788
0.714805
0.741441
0.768704
0.796604
0.825148
0.854343
0.884199
0.914721
0.945918
0.977794
1.01035
1.04361
1.07755
1.11219
1.14752
1.18356
1.22028
1.2577
1.29581
1.33459
1.37405
1.41417
1.45494
1.49635
1.53837
1.58099
1.62419
1.66795
1.71223
1.75702
1.80228
1.84798
1.89409
1.94057
1.98737
2.03447
2.08182
2.12937
2.17708
2.2249
2.27278
2.32067
2.36852
2.41628
2.46389
2.51129
2.55844
2.60526
2.65171
2.69772
2.74323
2.78818
2.83252
2.87618
2.9191
2.96124
3.00252
3.04289
3.08229
3.12066
3.15795
3.1941
3.22905
3.26277
3.29519
3.32627
3.35596
3.38422
3.41101
3.43629
3.46003
3.4822
3.50276
3.5217
3.539
3.55463
3.56859
3.58087
3.59146
3.60038
3.60761
3.61317
3.61707
3.61917
3.61968
3.61859
3.6159
3.61165
3.60587
3.59859
3.58985
3.57971
3.5682
3.55537
3.54127
3.52595
3.50947
3.49186
3.47319
3.45351
3.43286
3.4113
3.38888
3.36565
3.34166
3.31695
3.29157
3.26556
3.23898
3.21184
3.18421
3.15611
3.12758
3.09867
3.06942
3.03987
3.01008
2.98009
2.9499
2.91955
2.88907
2.8585
2.82792
2.79741
2.7671
2.73717
2.70781
2.67923
2.65057
2.61881
0.0236513
0.0479168
0.0612264
0.0706392
0.0783266
0.0851024
0.0913858
0.0974329
0.103418
0.109469
0.11568
0.122121
0.128844
0.135883
0.143266
0.151011
0.159137
0.16766
0.176598
0.185969
0.195794
0.206093
0.216883
0.228183
0.240008
0.252371
0.265283
0.278751
0.292782
0.307381
0.322551
0.338297
0.354619
0.37152
0.389002
0.407067
0.425716
0.444953
0.46478
0.485201
0.506219
0.52784
0.550069
0.572912
0.596376
0.620468
0.645197
0.67057
0.696598
0.72329
0.750657
0.778709
0.807457
0.836911
0.867082
0.897979
0.929614
0.961994
0.99513
1.02903
1.0637
1.09915
1.13537
1.17239
1.2102
1.24879
1.28818
1.32835
1.36931
1.41105
1.45355
1.49681
1.54082
1.58555
1.631
1.67714
1.72395
1.77139
1.81946
1.8681
1.91729
1.967
2.01717
2.06779
2.11879
2.17013
2.22177
2.27365
2.32573
2.37794
2.43024
2.48256
2.53485
2.58705
2.63909
2.69091
2.74244
2.79363
2.8444
2.89469
2.94443
2.99355
3.04199
3.08968
3.13656
3.18257
3.22763
3.27169
3.31467
3.35652
3.39717
3.43657
3.47465
3.51137
3.54665
3.58046
3.61274
3.64345
3.67254
3.69996
3.72569
3.74969
3.77193
3.79237
3.81101
3.82782
3.84279
3.8559
3.86716
3.87657
3.88414
3.88985
3.89373
3.89568
3.89588
3.8943
3.89095
3.88588
3.87912
3.87071
3.8607
3.84913
3.83606
3.82154
3.80562
3.78835
3.7698
3.75002
3.72906
3.707
3.68387
3.65975
3.63468
3.60873
3.58195
3.55439
3.52611
3.49715
3.46757
3.43741
3.40671
3.37553
3.3439
3.31187
3.27948
3.24679
3.21385
3.18069
3.14735
3.11387
3.0803
3.04669
3.01312
2.97971
2.9466
2.91399
2.88206
2.85101
2.82003
2.78664
0.0269846
0.052405
0.0666697
0.0767679
0.085005
0.0922441
0.0989246
0.105315
0.111599
0.117911
0.124352
0.131002
0.137918
0.145147
0.152721
0.160668
0.169008
0.177763
0.186951
0.19659
0.206698
0.217292
0.228389
0.240003
0.252149
0.264838
0.27808
0.291884
0.306257
0.321206
0.336736
0.352852
0.369561
0.386865
0.404772
0.423284
0.442408
0.46215
0.482515
0.503511
0.525144
0.547423
0.570355
0.593951
0.618219
0.64317
0.668814
0.695163
0.722229
0.750025
0.778563
0.807857
0.837921
0.868767
0.900408
0.932858
0.966128
1.00023
1.03518
1.07098
1.10765
1.14519
1.18361
1.22291
1.26311
1.3042
1.34618
1.38906
1.43282
1.47747
1.52299
1.56937
1.61659
1.66465
1.71352
1.76318
1.81359
1.86474
1.91659
1.96911
2.02225
2.07597
2.13024
2.18501
2.24022
2.29583
2.35177
2.408
2.46446
2.52107
2.57779
2.63454
2.69126
2.74788
2.80433
2.86054
2.91643
2.97194
3.027
3.08151
3.13542
3.18866
3.24113
3.29279
3.34355
3.39334
3.44209
3.48974
3.53621
3.58144
3.62535
3.66789
3.70899
3.74859
3.78663
3.82305
3.85781
3.89084
3.92211
3.95157
3.97917
4.00489
4.02868
4.05053
4.0704
4.08828
4.10415
4.118
4.12984
4.13965
4.14744
4.15323
4.15701
4.15874
4.15855
4.15641
4.15234
4.14638
4.13858
4.12898
4.11763
4.10459
4.0899
4.07363
4.05584
4.03658
4.01592
3.99392
3.97064
3.94615
3.92052
3.8938
3.86606
3.83736
3.80776
3.77734
3.74613
3.71421
3.68163
3.64843
3.61468
3.58042
3.54571
3.51058
3.47509
3.4393
3.40325
3.36699
3.33058
3.29406
3.25748
3.22093
3.18448
3.14827
3.11245
3.07721
3.04276
3.00925
2.97591
2.94072
0.030144
0.0561044
0.0711126
0.0817582
0.0904398
0.0980588
0.105069
0.111746
0.118281
0.124811
0.131443
0.138261
0.14533
0.152701
0.160414
0.168501
0.176986
0.185892
0.195239
0.205044
0.215323
0.226094
0.237369
0.249164
0.26149
0.27436
0.287785
0.301773
0.316334
0.331475
0.347206
0.363533
0.380466
0.398012
0.416178
0.434974
0.454409
0.474491
0.495229
0.516635
0.538719
0.561491
0.584964
0.609151
0.634064
0.659716
0.686122
0.713297
0.741255
0.770012
0.799585
0.829991
0.861246
0.893365
0.926365
0.960263
0.995072
1.03081
1.06749
1.10512
1.14371
1.18329
1.22385
1.2654
1.30796
1.35151
1.39607
1.44164
1.4882
1.53576
1.5843
1.6338
1.68427
1.73566
1.78797
1.84116
1.89521
1.95009
2.00575
2.06215
2.11926
2.17703
2.2354
2.29433
2.35375
2.41362
2.47386
2.53442
2.59523
2.65621
2.71731
2.77844
2.83953
2.90051
2.96129
3.0218
3.08197
3.1417
3.20092
3.25955
3.31751
3.37472
3.4311
3.48656
3.54105
3.59447
3.64675
3.69783
3.74761
3.79604
3.84303
3.88853
3.93246
3.97476
4.01537
4.05423
4.09127
4.12645
4.15973
4.19104
4.22035
4.24761
4.27281
4.29589
4.31685
4.33565
4.35229
4.36675
4.37903
4.38912
4.39704
4.4028
4.40638
4.40781
4.40715
4.40436
4.39948
4.39257
4.38367
4.37283
4.36011
4.34555
4.32921
4.31116
4.29147
4.27019
4.2474
4.22317
4.19756
4.17064
4.14249
4.11317
4.08276
4.05132
4.01893
3.98565
3.95154
3.91668
3.88112
3.84493
3.80817
3.77088
3.73313
3.69496
3.65644
3.61762
3.57855
3.5393
3.49992
3.46046
3.421
3.38162
3.34241
3.30351
3.26508
3.22732
3.19041
3.15449
3.11882
3.08169
0.0329787
0.0589806
0.0745326
0.0855969
0.0946239
0.102543
0.109816
0.116727
0.123467
0.130176
0.136964
0.143917
0.151104
0.15858
0.166387
0.174561
0.18313
0.192117
0.201542
0.211424
0.22178
0.232623
0.24397
0.255832
0.268224
0.281155
0.294639
0.308684
0.323304
0.338508
0.354307
0.370712
0.387735
0.405388
0.42368
0.442626
0.462236
0.482525
0.503504
0.525188
0.547592
0.570729
0.594617
0.619271
0.644709
0.670948
0.698006
0.725899
0.754648
0.784272
0.814792
0.846227
0.878597
0.911923
0.946223
0.981516
1.01782
1.05515
1.09353
1.13298
1.17349
1.2151
1.2578
1.30161
1.34654
1.39259
1.43975
1.48804
1.53743
1.58794
1.63954
1.69221
1.74595
1.80072
1.85651
1.91327
1.97099
2.02961
2.0891
2.1494
2.21049
2.27229
2.33475
2.39781
2.46142
2.5255
2.58998
2.6548
2.71987
2.78513
2.8505
2.91588
2.98121
3.0464
3.11136
3.17601
3.24026
3.30402
3.36721
3.42974
3.49153
3.55248
3.61251
3.67155
3.7295
3.7863
3.84185
3.89608
3.9489
4.00026
4.05006
4.09824
4.14473
4.18946
4.23236
4.27338
4.31245
4.34953
4.38455
4.41747
4.44824
4.47683
4.5032
4.52731
4.54915
4.56868
4.58591
4.6008
4.61336
4.62359
4.6315
4.63709
4.64038
4.64138
4.64017
4.63665
4.63089
4.62297
4.61292
4.6008
4.58665
4.57055
4.55255
4.53272
4.51112
4.48783
4.46293
4.43648
4.40856
4.37924
4.34861
4.31674
4.2837
4.24957
4.21443
4.17835
4.14141
4.10368
4.06523
4.02612
3.98643
3.9462
3.90551
3.86442
3.82297
3.78124
3.73929
3.69717
3.65496
3.61271
3.57052
3.52845
3.48663
3.44519
3.40429
3.36412
3.32485
3.28661
3.2487
3.20965
0.0354493
0.0610688
0.0769774
0.0883388
0.0976153
0.105755
0.113227
0.120316
0.127214
0.134063
0.140971
0.148026
0.155297
0.162841
0.170702
0.178917
0.187517
0.196526
0.205965
0.215853
0.226205
0.237038
0.248365
0.2602
0.272556
0.285447
0.298884
0.312882
0.327453
0.342612
0.358372
0.374749
0.391757
0.409412
0.427729
0.446724
0.466413
0.486813
0.507942
0.529816
0.552454
0.575875
0.600097
0.625144
0.651037
0.677797
0.705447
0.734008
0.763504
0.793959
0.825397
0.857843
0.89132
0.925852
0.96146
0.998167
1.03599
1.07496
1.11508
1.15638
1.19888
1.24258
1.28749
1.33364
1.38102
1.42963
1.47949
1.53058
1.58289
1.63643
1.69116
1.74708
1.80416
1.86237
1.92168
1.98206
2.04346
2.10585
2.16916
2.23336
2.29839
2.36418
2.43067
2.49779
2.56548
2.63365
2.70224
2.77116
2.84034
2.90968
2.97911
3.04853
3.11785
3.18699
3.25586
3.32435
3.39238
3.45986
3.52669
3.59278
3.65804
3.72238
3.78571
3.84794
3.90899
3.96877
4.0272
4.08419
4.13967
4.19356
4.24578
4.29626
4.34492
4.3917
4.43653
4.47934
4.52009
4.5587
4.59513
4.62933
4.66125
4.69086
4.71811
4.74298
4.76544
4.78546
4.80303
4.81815
4.83079
4.84097
4.8487
4.85398
4.85684
4.8573
4.85546
4.8511
4.84439
4.8354
4.82415
4.81072
4.79515
4.7775
4.75784
4.73624
4.71277
4.68751
4.66054
4.63193
4.60177
4.57013
4.5371
4.50275
4.46718
4.43047
4.39269
4.35393
4.31427
4.27379
4.23257
4.19068
4.14819
4.10517
4.06169
4.01782
3.97361
3.92914
3.88447
3.83967
3.79481
3.74996
3.70521
3.66066
3.61642
3.57261
3.52941
3.48699
3.44551
3.40509
3.36506
3.32422
0.0375478
0.0624364
0.0785322
0.0900775
0.0995122
0.107795
0.115399
0.122609
0.129617
0.136561
0.143551
0.150673
0.157995
0.165574
0.173455
0.181674
0.190261
0.19924
0.208634
0.218462
0.228741
0.239488
0.250718
0.262447
0.27469
0.287462
0.300776
0.314645
0.329088
0.344123
0.359769
0.376044
0.392968
0.41056
0.42884
0.447828
0.467545
0.488013
0.509252
0.531286
0.554134
0.577819
0.602356
0.627782
0.654124
0.681409
0.709662
0.738914
0.769193
0.800526
0.832943
0.86647
0.901137
0.936967
0.973987
1.01222
1.05169
1.09242
1.13443
1.17773
1.22235
1.2683
1.31559
1.36423
1.41422
1.46556
1.51825
1.57229
1.62766
1.68435
1.74234
1.8016
1.86211
1.92383
1.98671
2.05073
2.11583
2.18197
2.24908
2.3171
2.38598
2.45564
2.52602
2.59703
2.6686
2.74065
2.8131
2.88585
2.95882
3.03193
3.10507
3.17815
3.25108
3.32376
3.3961
3.46799
3.53935
3.61007
3.68005
3.7492
3.81743
3.88464
3.95074
4.01564
4.07925
4.14149
4.20226
4.26149
4.3191
4.375
4.42911
4.48137
4.5317
4.58003
4.6263
4.67044
4.71239
4.7521
4.78951
4.82458
4.85725
4.8875
4.91527
4.94056
4.96331
4.98352
5.00117
5.01624
5.02874
5.03866
5.04602
5.05082
5.05311
5.05291
5.05031
5.04502
5.03729
5.02718
5.01472
4.99996
4.98296
4.96379
4.94251
4.9192
4.89392
4.86677
4.83782
4.80716
4.77486
4.74102
4.70572
4.66905
4.6311
4.59195
4.55169
4.51042
4.46822
4.42517
4.38136
4.33688
4.29179
4.24618
4.20012
4.15368
4.10693
4.05993
4.01277
3.96552
3.91824
3.87103
3.82397
3.77716
3.73072
3.68477
3.63948
3.59502
3.55152
3.5091
3.46716
3.42472
0.0392948
0.0631756
0.079298
0.0909208
0.100427
0.108779
0.116449
0.123721
0.130787
0.137784
0.144819
0.151974
0.159316
0.166898
0.174765
0.182948
0.191476
0.200378
0.209675
0.21939
0.229539
0.240143
0.251218
0.262784
0.274859
0.287465
0.30063
0.314352
0.328653
0.343554
0.359076
0.375242
0.392075
0.409599
0.42784
0.446821
0.466569
0.48711
0.508472
0.530681
0.553762
0.577745
0.602658
0.62854
0.655421
0.683336
0.712316
0.742395
0.773609
0.80599
0.839572
0.874384
0.910456
0.947816
0.98649
1.0265
1.06788
1.11064
1.15481
1.20039
1.24742
1.29589
1.34583
1.39722
1.45008
1.5044
1.56016
1.61736
1.67598
1.736
1.79738
1.8601
1.92412
1.98939
2.05588
2.12352
2.19227
2.26206
2.33283
2.40451
2.47704
2.55033
2.62431
2.69889
2.77399
2.84953
2.92541
3.00154
3.07783
3.15417
3.23049
3.30667
3.38261
3.45823
3.53341
3.60805
3.68206
3.75535
3.82779
3.89931
3.96981
4.03919
4.10735
4.17421
4.23967
4.30366
4.36608
4.42685
4.48589
4.54313
4.59848
4.65187
4.70322
4.75249
4.79959
4.84446
4.88706
4.92731
4.96518
5.00061
5.03356
5.06399
5.09187
5.11716
5.13984
5.15989
5.1773
5.19204
5.20412
5.21354
5.22032
5.22446
5.226
5.22507
5.22154
5.21525
5.20646
5.1952
5.18151
5.16544
5.14705
5.12641
5.10359
5.07865
5.05168
5.02276
4.99198
4.95941
4.92515
4.88929
4.85191
4.81312
4.77299
4.73163
4.68912
4.64557
4.60106
4.55569
4.50955
4.46272
4.4153
4.36736
4.31899
4.27025
4.22123
4.172
4.12263
4.0732
4.02381
3.97452
3.92543
3.87664
3.82828
3.78046
3.73334
3.68708
3.6418
3.59764
3.55402
3.51024
0.0406641
0.0632796
0.0793154
0.0909407
0.100454
0.108812
0.116492
0.123777
0.130854
0.137859
0.144894
0.15204
0.159362
0.166912
0.174737
0.182862
0.191319
0.200133
0.209328
0.218926
0.228947
0.239411
0.250338
0.261748
0.273659
0.28609
0.299053
0.312578
0.326693
0.341427
0.356808
0.372864
0.389626
0.407123
0.425386
0.444445
0.464333
0.48508
0.506722
0.529297
0.552833
0.577353
0.602868
0.629437
0.657109
0.685925
0.715926
0.747149
0.779635
0.813427
0.848561
0.885065
0.922967
0.962295
1.00308
1.04533
1.08908
1.13434
1.18112
1.22945
1.27933
1.33077
1.38376
1.43831
1.4944
1.55203
1.61116
1.67179
1.73387
1.79739
1.86229
1.92854
1.99609
2.06489
2.13489
2.20601
2.27821
2.35141
2.42554
2.50052
2.57629
2.65275
2.72982
2.80741
2.88545
2.96383
3.04246
3.12124
3.20009
3.2789
3.35757
3.43601
3.51411
3.59178
3.66891
3.7454
3.82115
3.89607
3.97006
4.04301
4.11484
4.18545
4.25475
4.32265
4.38906
4.4539
4.51708
4.57852
4.63815
4.69589
4.75165
4.80538
4.85699
4.90644
4.95365
4.99856
5.04113
5.0813
5.11901
5.15423
5.1869
5.217
5.24449
5.26934
5.29153
5.31104
5.32784
5.34193
5.35331
5.36199
5.36796
5.37125
5.3719
5.37015
5.36554
5.35821
5.34832
5.33591
5.32101
5.30368
5.28398
5.26197
5.23772
5.2113
5.18279
5.15229
5.11986
5.08561
5.04962
5.01198
4.97278
4.93213
4.89011
4.84682
4.80236
4.75683
4.71033
4.66295
4.6148
4.56596
4.51653
4.4666
4.41625
4.36556
4.31461
4.26349
4.21226
4.16102
4.10984
4.05882
4.00805
3.95762
3.90767
3.8583
3.80967
3.76192
3.71516
3.66954
3.62452
3.57972
0.0418568
0.0631269
0.0789937
0.0905377
0.0999827
0.108281
0.115909
0.123146
0.13018
0.137145
0.144139
0.15124
0.158509
0.165992
0.173728
0.181748
0.190081
0.19875
0.207782
0.217202
0.227033
0.2373
0.248027
0.259239
0.27096
0.283219
0.296044
0.309466
0.323514
0.33822
0.353617
0.369741
0.386628
0.40432
0.422866
0.442292
0.462632
0.483925
0.506206
0.529496
0.553809
0.579223
0.605804
0.633615
0.662694
0.693079
0.724813
0.757933
0.792478
0.828475
0.865953
0.904949
0.945494
0.987628
1.03136
1.0767
1.12366
1.17224
1.22245
1.27429
1.32776
1.38285
1.43954
1.49782
1.55767
1.61905
1.68193
1.74628
1.81206
1.87921
1.9477
2.01745
2.08843
2.16056
2.23379
2.30804
2.38325
2.45934
2.53624
2.61387
2.69214
2.77098
2.8503
2.93001
3.01002
3.09024
3.17058
3.25095
3.33124
3.41137
3.49123
3.57074
3.64979
3.72829
3.80614
3.88324
3.9595
4.03482
4.10911
4.18227
4.25422
4.32487
4.39412
4.46188
4.52809
4.59265
4.65548
4.71652
4.77568
4.83289
4.88807
4.94116
4.9921
5.04083
5.08728
5.13141
5.17316
5.21247
5.24931
5.28363
5.31539
5.34455
5.37109
5.39497
5.41618
5.4347
5.4505
5.46357
5.47393
5.48156
5.48648
5.48871
5.48838
5.48557
5.47977
5.47134
5.46033
5.44676
5.43069
5.41216
5.39123
5.36796
5.34242
5.31468
5.28482
5.25294
5.2191
5.18341
5.14594
5.1068
5.06608
5.02387
4.98027
4.93538
4.8893
4.84214
4.794
4.74498
4.69518
4.6447
4.59364
4.54209
4.49014
4.43788
4.3854
4.33277
4.28007
4.2274
4.17483
4.12247
4.07039
4.0187
3.96752
3.91697
3.86717
3.81827
3.77036
3.7236
3.6775
3.63203
0.0428597
0.0626984
0.0782183
0.0895759
0.0988663
0.107026
0.114529
0.121655
0.128589
0.135461
0.142365
0.149374
0.156543
0.163918
0.171537
0.179433
0.187637
0.196183
0.205096
0.214401
0.224128
0.234304
0.244961
0.25613
0.267843
0.280134
0.293039
0.306602
0.32087
0.335877
0.35166
0.368264
0.385731
0.404097
0.423376
0.443617