/*--------------------------------*- C++ -*----------------------------------*\
| =========                 |                                                 |
| \\      /  F ield         | OpenFOAM: The Open Source CFD Toolbox           |
|  \\    /   O peration     | Version:  2406                                  |
|   \\  /    A nd           | Website:  www.openfoam.com                      |
|    \\/     M anipulation  |                                                 |
\*---------------------------------------------------------------------------*/
FoamFile
{
    version     2.0;
    format      ascii;
    arch        "LSB;label=32;scalar=64";
    class       volScalarField;
    location    "250";
    object      nut;
}
// * * * * * * * * * * * * * * * * * * * * * * * * * * * * * * * * * * * * * //

dimensions      [0 2 -1 0 0 0 0];

internalField   nonuniform List<scalar> 
12225
(
2.70744e-05
3.55747e-05
4.05232e-05
4.31924e-05
4.44515e-05
4.49643e-05
4.49108e-05
4.48716e-05
4.4503e-05
4.41848e-05
4.38513e-05
4.35232e-05
4.32271e-05
4.29454e-05
4.27117e-05
4.24744e-05
4.23152e-05
4.20877e-05
0.000212993
8.46399e-05
5.59091e-05
4.40563e-05
3.83769e-05
3.53544e-05
3.38476e-05
3.30814e-05
3.28538e-05
3.2874e-05
3.3216e-05
3.36032e-05
3.42305e-05
3.47985e-05
3.55865e-05
3.62276e-05
3.71319e-05
3.76566e-05
0.000656989
0.000306533
0.000194013
0.000142104
0.000113224
9.44974e-05
8.20236e-05
7.33149e-05
6.68e-05
6.19616e-05
5.80405e-05
5.51125e-05
5.25303e-05
5.07141e-05
4.88962e-05
4.78532e-05
4.63496e-05
4.53831e-05
0.000863003
0.000609451
0.000451622
0.000350847
0.000289299
0.000246498
0.000216681
0.000194295
0.000177763
0.000164289
0.000154046
0.000145061
0.000138199
0.000131725
0.000126851
0.00012205
0.000118079
0.000113626
0.000877431
0.000776409
0.000690862
0.000591932
0.000517323
0.000458093
0.000413479
0.000377228
0.000349672
0.000325962
0.000307901
0.000291295
0.000278926
0.000266582
0.000257886
0.000248213
0.000242244
0.000233263
0.000858411
0.000835293
0.000807286
0.000753097
0.00069939
0.000648247
0.000604834
0.000565863
0.000534205
0.000505358
0.000482493
0.000460719
0.000444084
0.000427073
0.000414973
0.000401093
0.00039269
0.000379907
0.000854258
0.000849543
0.000840712
0.000823039
0.0007986
0.000768465
0.000739181
0.000709551
0.000683357
0.000657721
0.000636207
0.000614793
0.000597706
0.000579778
0.000566555
0.000551122
0.000541634
0.000526645
0.00085239
0.000851592
0.000849792
0.000844527
0.000835945
0.000824519
0.000810178
0.000793463
0.000777243
0.000760011
0.00074456
0.000728285
0.000714569
0.000699755
0.000688195
0.000674674
0.000665744
0.00065197
0.000851903
0.00085148
0.000851079
0.000849881
0.000847545
0.000843616
0.000838592
0.000831271
0.000823646
0.000814989
0.000806298
0.000796548
0.000787795
0.000778062
0.000769856
0.000760445
0.000753326
0.000743465
0.000851815
0.000851373
0.000851073
0.000850609
0.000850034
0.000848808
0.000847331
0.000844857
0.000841997
0.000838303
0.000834502
0.000829861
0.000825422
0.000820269
0.000815573
0.000810252
0.000805601
0.000799747
0.000851799
0.000851357
0.000851021
0.000850623
0.000850325
0.000849824
0.000849338
0.000848517
0.000847604
0.00084626
0.000844872
0.000843007
0.0008412
0.000838881
0.000836817
0.000834099
0.000832042
0.000828842
0.000851792
0.000851359
0.000851001
0.000850611
0.000850306
0.000849938
0.000849631
0.00084921
0.000848815
0.000848233
0.000847676
0.000846875
0.000846137
0.000845091
0.000844212
0.000842914
0.000841974
0.000840423
0.000851787
0.000851362
0.000850989
0.000850607
0.00085028
0.000849936
0.000849644
0.000849319
0.00084904
0.000848697
0.000848398
0.000848001
0.000847658
0.000847179
0.000846786
0.00084621
0.000845771
0.000845099
0.000851783
0.000851364
0.00085098
0.000850604
0.000850263
0.000849925
0.000849622
0.000849315
0.000849043
0.000848758
0.000848506
0.000848232
0.00084799
0.000847714
0.000847472
0.000847185
0.000846936
0.000846635
0.000851781
0.000851364
0.000850974
0.0008506
0.000850251
0.000849916
0.000849602
0.0008493
0.000849018
0.000848744
0.000848488
0.000848238
0.000848004
0.000847773
0.000847556
0.00084734
0.000847136
0.000846932
0.00085178
0.000851363
0.00085097
0.000850596
0.000850242
0.000849906
0.000849588
0.000849285
0.000848998
0.000848724
0.000848463
0.000848213
0.000847976
0.000847748
0.000847531
0.000847322
0.000847123
0.000846931
0.000851779
0.000851362
0.000850967
0.000850592
0.000850236
0.000849899
0.000849578
0.000849273
0.000848984
0.000848707
0.000848444
0.000848192
0.000847952
0.000847722
0.000847502
0.000847292
0.00084709
0.000846898
0.000851779
0.000851362
0.000850965
0.000850589
0.000850233
0.000849894
0.000849572
0.000849265
0.000848974
0.000848696
0.00084843
0.000848177
0.000847935
0.000847703
0.000847481
0.000847269
0.000847066
0.000846871
0.000851779
0.000851362
0.000850965
0.000850589
0.000850232
0.000849892
0.00084957
0.000849262
0.00084897
0.000848691
0.000848424
0.00084817
0.000847927
0.000847694
0.000847471
0.000847258
0.000847054
0.000846858
0.000851779
0.000851362
0.000850966
0.000850591
0.000850234
0.000849895
0.000849573
0.000849266
0.000848973
0.000848695
0.000848428
0.000848174
0.00084793
0.000847697
0.000847473
0.000847259
0.000847052
0.000846855
0.000851779
0.000851364
0.000850968
0.000850595
0.000850238
0.000849902
0.000849578
0.000849274
0.000848979
0.0008487
0.000848427
0.000848168
0.000847911
0.000847667
0.00084742
0.000847187
0.000846947
0.000846723
0.000851778
0.000851367
0.000850969
0.000850603
0.000850243
0.00084991
0.000849573
0.000849254
0.000848916
0.000848587
0.000848223
0.000847865
0.000847456
0.00084706
0.000846596
0.00084616
0.000845637
0.00084517
0.000851779
0.000851381
0.000850972
0.000850624
0.000850209
0.000849789
0.000849233
0.000848616
0.000847803
0.000846896
0.000845768
0.00084456
0.000843125
0.000841663
0.000839961
0.00083833
0.000836387
0.000834699
0.000851855
0.000851467
0.000850932
0.000850394
0.000849126
0.000847458
0.000844947
0.00084194
0.000838072
0.000833847
0.000828961
0.000823928
0.000818453
0.000813001
0.000807323
0.000801608
0.000795921
0.000790797
0.000852785
0.00085138
0.000849189
0.000845095
0.000836884
0.000827817
0.000815748
0.000802823
0.000788374
0.000774368
0.000759663
0.000746077
0.000732119
0.000719683
0.00070682
0.00069584
0.000684088
0.000674695
0.000858211
0.000842299
0.000828961
0.000803015
0.000769257
0.000735475
0.000700803
0.000669705
0.000639499
0.000613594
0.000588613
0.000567745
0.000547316
0.000530659
0.000513866
0.00050061
0.000486567
0.000476067
0.000864337
0.000785613
0.000712709
0.000628304
0.00055828
0.00050309
0.000455748
0.000418868
0.000386625
0.000361594
0.000338764
0.000321228
0.000304415
0.000291772
0.000278912
0.000269549
0.000259369
0.000252304
0.000775957
0.000540063
0.000397942
0.000312965
0.000258158
0.000219635
0.000190507
0.000169565
0.000152553
0.000139992
0.000129095
0.000121017
0.000113528
0.000108076
0.000102634
9.88115e-05
9.46877e-05
9.19149e-05
0.000323583
0.000164841
0.000111417
8.60758e-05
7.08266e-05
6.13546e-05
5.50185e-05
5.08856e-05
4.79533e-05
4.60098e-05
4.45906e-05
4.36882e-05
4.30394e-05
4.2695e-05
4.24553e-05
4.24393e-05
4.2436e-05
4.26226e-05
3.26574e-05
3.90518e-05
4.3892e-05
4.69715e-05
4.93654e-05
5.11699e-05
5.25343e-05
5.34595e-05
5.41141e-05
5.44634e-05
5.46907e-05
5.46975e-05
5.46544e-05
5.45501e-05
5.43772e-05
5.41699e-05
5.3945e-05
5.37084e-05
3.08709e-06
8.46788e-06
1.01274e-05
1.14449e-05
1.24638e-05
1.3256e-05
1.38809e-05
1.43814e-05
1.48107e-05
1.5214e-05
1.55957e-05
1.597e-05
1.63485e-05
1.67371e-05
1.71368e-05
1.75476e-05
1.79756e-05
1.84471e-05
1.90176e-05
1.9688e-05
2.04187e-05
2.11929e-05
2.2009e-05
2.28699e-05
2.37793e-05
2.47392e-05
2.57436e-05
2.67877e-05
2.78658e-05
2.89725e-05
3.0103e-05
3.12483e-05
3.24012e-05
3.35573e-05
3.47115e-05
3.58605e-05
3.70022e-05
3.81355e-05
3.92594e-05
4.03744e-05
4.14812e-05
4.25815e-05
4.36779e-05
4.47744e-05
4.58765e-05
4.69921e-05
4.81386e-05
4.92653e-05
5.03941e-05
5.15153e-05
5.26341e-05
5.37488e-05
5.48607e-05
5.59698e-05
5.70764e-05
5.81806e-05
5.92827e-05
6.03827e-05
6.14805e-05
6.25765e-05
6.36701e-05
6.47617e-05
6.58508e-05
6.69374e-05
6.80211e-05
6.91018e-05
7.01789e-05
7.12524e-05
7.23217e-05
7.33864e-05
7.44461e-05
7.55004e-05
7.65486e-05
7.75905e-05
7.86253e-05
7.96527e-05
8.06718e-05
8.16824e-05
8.26836e-05
8.36751e-05
8.46561e-05
8.56261e-05
8.65844e-05
8.75304e-05
8.84635e-05
8.93831e-05
9.02884e-05
9.11789e-05
9.20538e-05
9.29125e-05
9.37543e-05
9.45782e-05
9.53835e-05
9.6169e-05
9.69339e-05
9.76767e-05
9.83963e-05
9.90914e-05
9.9761e-05
0.000100405
0.000101026
0.000101631
0.00010221
0.000102766
0.000103299
0.000103808
0.000104294
0.000104754
0.00010519
0.000105601
0.000105986
0.000106345
0.000106678
0.000106984
0.000107264
0.000107516
0.000107741
0.000107938
0.000108108
0.00010825
0.000108364
0.000108451
0.000108509
0.000108539
0.000108542
0.000108517
0.000108465
0.000108386
0.000108279
0.000108145
0.000107989
0.000107806
0.000107595
0.00010735
0.000107085
0.000106803
0.000106492
0.000106159
0.000105803
0.000105425
0.000105027
0.000104608
0.00010417
0.000103714
0.00010324
0.000102749
0.000102242
0.00010172
0.000101183
0.000100632
0.000100069
9.94934e-05
9.89065e-05
9.83089e-05
9.77014e-05
9.70847e-05
9.64594e-05
9.58262e-05
9.51856e-05
9.45383e-05
9.38848e-05
9.32255e-05
9.25615e-05
9.18935e-05
9.12246e-05
9.05776e-05
9.01075e-05
8.9742e-05
8.93856e-05
8.90295e-05
8.86724e-05
8.83138e-05
8.79527e-05
8.75874e-05
8.72149e-05
8.68296e-05
8.64207e-05
8.59583e-05
8.53721e-05
8.35723e-05
4.8571e-06
2.07165e-05
4.56124e-05
6.65482e-05
8.15464e-05
9.18502e-05
9.8943e-05
0.000103711
0.000106697
0.000108666
0.000110405
0.000112246
0.000114263
0.000116404
0.000118564
0.000120639
0.000122539
0.000124205
0.000125663
0.000127014
0.00012833
0.000129705
0.000131219
0.000132956
0.000135025
0.000137578
0.00014057
0.000143984
0.000147817
0.00015206
0.000156695
0.000161709
0.000167103
0.000172847
0.000178953
0.000185354
0.000192021
0.000198921
0.000206022
0.000213293
0.000220704
0.000228223
0.00023582
0.000243468
0.000251147
0.000258845
0.000266572
0.000274371
0.000282214
0.000290119
0.000298083
0.00030611
0.000314201
0.000322361
0.000330592
0.000338897
0.000347278
0.00035574
0.000364284
0.000372914
0.000381632
0.000390439
0.000399338
0.00040833
0.000417417
0.000426599
0.000435878
0.000445251
0.00045472
0.000464282
0.000473935
0.000483679
0.000493511
0.000503427
0.000513425
0.0005235
0.00053365
0.000543868
0.000554152
0.000564495
0.000574892
0.000585338
0.000595828
0.000606354
0.000616911
0.000627492
0.000638093
0.000648704
0.000659322
0.00066994
0.000680552
0.000691153
0.000701736
0.000712296
0.000722822
0.000733302
0.000743713
0.00075402
0.000764154
0.000773997
0.000783352
0.000791978
0.000800574
0.000809012
0.000817317
0.000825476
0.000833485
0.000841335
0.000849019
0.00085653
0.00086386
0.000871003
0.000877951
0.000884698
0.000891237
0.000897562
0.000903666
0.000909545
0.000915192
0.000920603
0.000925772
0.000930697
0.000935372
0.000939795
0.000943963
0.000947874
0.000951527
0.000954923
0.000958063
0.000960947
0.000963558
0.000965957
0.000968185
0.000969964
0.000971428
0.000972792
0.000973886
0.000974724
0.00097532
0.000975682
0.000975815
0.000975726
0.000975419
0.000974897
0.000974167
0.000973243
0.000972131
0.000970838
0.000969371
0.00096774
0.000965949
0.000964008
0.000961923
0.000959702
0.000957351
0.000954877
0.000952286
0.000949584
0.000946776
0.000943868
0.000940862
0.00093776
0.000934559
0.000931246
0.000927748
0.000923702
0.000917835
0.000910836
0.000903478
0.000895958
0.000888324
0.000880588
0.000872749
0.000864794
0.000856687
0.000848379
0.000839719
0.000830443
0.000819072
0.000791552
6.21058e-06
3.16035e-05
7.13567e-05
0.000106926
0.000134837
0.000155549
0.000170532
0.000181307
0.000189071
0.000194838
0.000199437
0.000203441
0.000207192
0.000210858
0.000214497
0.000218116
0.000221705
0.000225272
0.000228854
0.00023258
0.000236637
0.000241137
0.000246169
0.000251801
0.000258055
0.000264871
0.000272348
0.000280534
0.000289435
0.000299032
0.000309294
0.000320165
0.000331799
0.000344393
0.000357539
0.000371114
0.000385063
0.000399336
0.000413884
0.000428668
0.000443654
0.000458811
0.000474111
0.000489536
0.00050507
0.000520705
0.000536432
0.00055228
0.000568241
0.000584323
0.000600527
0.000616858
0.00063332
0.000649919
0.000666658
0.000683542
0.000700575
0.000717762
0.000735107
0.000752613
0.000770282
0.000788115
0.000806114
0.000824279
0.000842615
0.000861121
0.000879795
0.000898635
0.000917638
0.000936799
0.000956114
0.000975578
0.000995185
0.00101493
0.0010348
0.00105479
0.00107489
0.00109509
0.00111539
0.00113576
0.00115621
0.00117672
0.00119727
0.00121786
0.00123847
0.00125908
0.0012797
0.0013003
0.00132086
0.00134139
0.00136185
0.00138224
0.00140253
0.00142271
0.00144276
0.00146263
0.00148228
0.00150167
0.00152071
0.00153931
0.00155739
0.00157502
0.00159243
0.00160955
0.00162639
0.00164291
0.00165912
0.001675
0.00169052
0.00170568
0.00172045
0.00173484
0.00174881
0.00176237
0.00177549
0.00178816
0.00180038
0.00181212
0.00182338
0.00183415
0.00184442
0.00185419
0.00186343
0.00187215
0.00188034
0.001888
0.00189513
0.00190172
0.00190777
0.00191329
0.00191828
0.00192279
0.00192695
0.00193032
0.00193299
0.00193534
0.00193714
0.00193844
0.00193924
0.00193956
0.0019394
0.00193877
0.0019377
0.00193618
0.00193424
0.00193189
0.00192915
0.00192603
0.00192254
0.00191871
0.00191455
0.00191006
0.00190527
0.00190019
0.00189484
0.00188922
0.00188335
0.00187724
0.0018709
0.00186434
0.00185757
0.0018506
0.00184341
0.00183599
0.00182822
0.00181973
0.00180954
0.00179801
0.00178583
0.00177328
0.00176045
0.0017474
0.00173411
0.00172057
0.00170671
0.00169243
0.00167745
0.00166102
0.00164029
0.00159769
7.14719e-06
4.37088e-05
9.56032e-05
0.000140994
0.000176904
0.000204092
0.000224233
0.000239016
0.000249931
0.000258221
0.000264871
0.000270611
0.000275939
0.000281171
0.000286493
0.000292011
0.0002978
0.000303928
0.000310476
0.000317544
0.000325238
0.000333646
0.000342837
0.000352862
0.000363751
0.000375523
0.000388208
0.000401817
0.000416344
0.000431774
0.000448096
0.000465312
0.000483207
0.000501469
0.00052022
0.000539447
0.000559096
0.000579112
0.000599438
0.000620013
0.000640847
0.000661915
0.000683199
0.000704691
0.000726397
0.000748343
0.000770522
0.000792877
0.000815402
0.000838102
0.00086098
0.000884042
0.000907291
0.000930734
0.000954376
0.00097822
0.00100227
0.00102653
0.00105101
0.00107571
0.00110063
0.00112577
0.00115114
0.00117673
0.00120255
0.00122859
0.00125485
0.00128131
0.00130799
0.00133487
0.00136193
0.00138919
0.00141661
0.0014442
0.00147195
0.00149983
0.00152784
0.00155596
0.00158418
0.00161249
0.00164086
0.00166929
0.00169775
0.00172623
0.00175471
0.00178317
0.00181159
0.00183996
0.00186825
0.00189644
0.00192451
0.00195244
0.00198019
0.00200775
0.00203507
0.00206213
0.00208887
0.00211525
0.0021412
0.00216668
0.00219167
0.00221625
0.00224046
0.00226429
0.00228771
0.0023107
0.00233325
0.00235532
0.00237691
0.00239799
0.00241855
0.00243856
0.002458
0.00247686
0.00249512
0.00251276
0.00252977
0.00254613
0.00256183
0.00257685
0.00259118
0.0026048
0.00261772
0.00262991
0.00264137
0.0026521
0.00266209
0.00267133
0.00267983
0.00268759
0.00269462
0.00270105
0.00270696
0.00271176
0.00271556
0.00271896
0.00272155
0.00272347
0.00272469
0.00272523
0.0027251
0.00272433
0.00272292
0.0027209
0.00271828
0.00271509
0.00271134
0.00270706
0.00270226
0.00269697
0.0026912
0.00268498
0.00267833
0.00267126
0.0026638
0.00265596
0.00264775
0.00263921
0.00263033
0.00262114
0.00261165
0.00260185
0.00259176
0.00258134
0.0025705
0.00255894
0.00254608
0.00253205
0.00251725
0.00250195
0.00248627
0.00247024
0.00245391
0.00243724
0.00242025
0.00240278
0.00238445
0.00236427
0.00233892
0.00229335
7.80059e-06
5.50775e-05
0.000117796
0.000171332
0.000213726
0.000246
0.000270214
0.00028831
0.000301973
0.000312604
0.000321318
0.000328961
0.000336144
0.00034328
0.00035064
0.000358399
0.000366677
0.000375567
0.000385154
0.00039552
0.000406738
0.000418873
0.000431971
0.000446066
0.000461175
0.000477302
0.000494443
0.000512575
0.000531663
0.000551658
0.000572498
0.000594102
0.00061636
0.000639175
0.000662524
0.000686373
0.000710677
0.000735396
0.000760499
0.000785974
0.000811753
0.000837809
0.000864121
0.000890673
0.000917447
0.000944414
0.00097156
0.000998922
0.00102651
0.00105432
0.00108236
0.00111063
0.00113915
0.0011679
0.0011969
0.00122615
0.00125565
0.00128539
0.00131538
0.00134564
0.00137616
0.00140694
0.00143798
0.00146928
0.00150084
0.00153264
0.00156469
0.00159698
0.00162949
0.00166223
0.00169516
0.0017283
0.00176161
0.0017951
0.00182874
0.00186251
0.00189641
0.00193042
0.00196451
0.00199867
0.00203288
0.00206711
0.00210136
0.00213559
0.00216979
0.00220394
0.002238
0.00227196
0.0023058
0.00233949
0.002373
0.0024063
0.00243937
0.00247218
0.00250468
0.00253686
0.00256867
0.00260008
0.00263106
0.0026616
0.00269168
0.00272132
0.00275051
0.00277924
0.00280748
0.00283522
0.00286242
0.00288907
0.00291514
0.0029406
0.00296545
0.00298965
0.00301319
0.00303604
0.00305818
0.00307959
0.00310026
0.00312017
0.0031393
0.00315763
0.00317514
0.00319183
0.00320769
0.00322269
0.00323683
0.0032501
0.0032625
0.00327402
0.00328465
0.00329442
0.00330332
0.00331163
0.00331905
0.00332526
0.0033304
0.00333495
0.0033386
0.0033414
0.00334337
0.00334453
0.00334488
0.00334445
0.00334326
0.00334132
0.00333867
0.00333532
0.00333129
0.00332661
0.00332131
0.0033154
0.00330891
0.00330186
0.00329428
0.00328619
0.00327762
0.00326858
0.00325909
0.00324918
0.00323886
0.00322814
0.00321706
0.0032056
0.00319378
0.00318158
0.00316892
0.00315561
0.00314133
0.00312609
0.0031101
0.00309355
0.00307654
0.00305914
0.00304136
0.00302321
0.00300464
0.00298553
0.00296555
0.00294366
0.00291664
0.00287303
8.2695e-06
6.55199e-05
0.000137771
0.000198469
0.00024655
0.000283434
0.000311423
0.000332682
0.000349052
0.000362061
0.00037293
0.0003826
0.000391768
0.000400926
0.000410408
0.000420438
0.000431166
0.0004427
0.000455121
0.000468494
0.000482872
0.000498294
0.000514785
0.000532355
0.000551002
0.00057071
0.000591448
0.000613177
0.000635844
0.000659388
0.000683741
0.000708829
0.00073458
0.000760931
0.000787838
0.00081526
0.000843154
0.000871484
0.000900215
0.000929316
0.000958752
0.000988497
0.00101853
0.00104884
0.00107941
0.00111022
0.00114128
0.0011726
0.00120417
0.001236
0.00126808
0.00130043
0.00133305
0.00136593
0.00139909
0.00143252
0.00146622
0.00150022
0.0015345
0.00156905
0.00160388
0.00163897
0.00167433
0.00170995
0.00174582
0.00178194
0.0018183
0.00185489
0.0018917
0.00192872
0.00196593
0.00200333
0.0020409
0.00207862
0.00211648
0.00215446
0.00219255
0.00223072
0.00226895
0.00230724
0.00234555
0.00238386
0.00242216
0.00246043
0.00249863
0.00253675
0.00257476
0.00261264
0.00265037
0.00268791
0.00272525
0.00276235
0.00279918
0.00283572
0.00287194
0.0029078
0.00294329
0.00297836
0.003013
0.0030472
0.00308093
0.00311419
0.00314695
0.00317921
0.00321094
0.00324211
0.00327271
0.00330269
0.00333205
0.00336076
0.00338878
0.00341611
0.00344272
0.00346858
0.00349367
0.00351797
0.00354147
0.00356413
0.00358595
0.0036069
0.00362696
0.00364612
0.00366437
0.00368169
0.00369807
0.0037135
0.00372797
0.00374147
0.003754
0.00376556
0.00377625
0.00378627
0.00379514
0.00380274
0.00380932
0.00381511
0.00381993
0.00382379
0.00382672
0.00382874
0.00382987
0.00383011
0.0038295
0.00382806
0.0038258
0.00382276
0.00381895
0.0038144
0.00380914
0.00380319
0.00379659
0.00378935
0.0037815
0.00377307
0.00376408
0.00375456
0.00374453
0.00373401
0.00372302
0.00371159
0.00369973
0.00368745
0.00367476
0.00366165
0.00364807
0.00363391
0.00361898
0.00360327
0.00358687
0.00356991
0.00355247
0.0035346
0.00351634
0.00349771
0.00347867
0.00345914
0.00343882
0.00341676
0.00339009
0.00335032
8.61392e-06
7.47643e-05
0.000155107
0.000222165
0.000275477
0.000316793
0.000348544
0.000373036
0.000392228
0.000407744
0.00042089
0.000432688
0.000443907
0.000455103
0.000466667
0.000478861
0.000491861
0.000505785
0.000520712
0.000536695
0.00055377
0.000571954
0.000591253
0.000611659
0.000633153
0.000655704
0.000679269
0.000703799
0.000729237
0.000755522
0.000782591
0.00081038
0.00083883
0.00086789
0.000897512
0.000927656
0.000958281
0.000989353
0.00102084
0.00105271
0.00108493
0.00111749
0.00115037
0.00118355
0.00121702
0.00125078
0.00128481
0.00131911
0.00135369
0.00138855
0.00142367
0.00145907
0.00149475
0.0015307
0.00156693
0.00160343
0.00164022
0.00167729
0.00171463
0.00175225
0.00179013
0.00182828
0.00186668
0.00190533
0.00194423
0.00198337
0.00202273
0.00206232
0.00210211
0.0021421
0.00218227
0.00222261
0.0022631
0.00230374
0.00234449
0.00238536
0.00242631
0.00246734
0.00250842
0.00254953
0.00259065
0.00263177
0.00267285
0.00271388
0.00275484
0.0027957
0.00283644
0.00287704
0.00291746
0.0029577
0.00299771
0.00303747
0.00307696
0.00311614
0.003155
0.0031935
0.00323163
0.00326934
0.00330663
0.00334347
0.00337984
0.00341573
0.00345111
0.00348597
0.00352027
0.003554
0.00358713
0.00361963
0.00365149
0.00368266
0.00371314
0.00374289
0.00377189
0.00380011
0.00382755
0.00385416
0.00387993
0.00390484
0.00392886
0.00395198
0.00397417
0.00399543
0.00401573
0.00403505
0.00405338
0.00407072
0.00408704
0.00410234
0.00411661
0.00412985
0.00414229
0.00415377
0.00416414
0.00417315
0.00418121
0.0041883
0.00419436
0.0041994
0.00420343
0.00420648
0.00420856
0.0042097
0.00420991
0.00420921
0.00420763
0.00420519
0.00420192
0.00419784
0.00419298
0.00418738
0.00418105
0.00417403
0.00416634
0.00415801
0.00414907
0.00413954
0.00412945
0.00411883
0.0041077
0.00409608
0.00408399
0.00407145
0.00405846
0.00404503
0.00403114
0.00401671
0.00400166
0.00398594
0.00396961
0.00395274
0.0039354
0.00391764
0.0038995
0.003881
0.00386215
0.0038429
0.003823
0.00380164
0.00377643
0.0037409
9.03083e-06
8.09599e-05
0.000168277
0.000241516
0.000300018
0.000345869
0.000381521
0.000409405
0.000431578
0.000449746
0.00046529
0.000479298
0.000492599
0.000505808
0.00051936
0.000533557
0.000548598
0.000564613
0.000581683
0.000599853
0.000619148
0.000639572
0.000661117
0.000683761
0.000707475
0.000732222
0.000757954
0.000784619
0.000812158
0.000840512
0.000869625
0.000899441
0.000929907
0.000960976
0.000992604
0.00102475
0.00105738
0.00109046
0.00112396
0.00115786
0.00119212
0.00122673
0.00126167
0.00129694
0.00133252
0.0013684
0.00140457
0.00144102
0.00147774
0.00151474
0.00155201
0.00158954
0.00162735
0.00166542
0.00170377
0.00174238
0.00178125
0.00182039
0.00185979
0.00189944
0.00193935
0.0019795
0.00201989
0.00206052
0.00210138
0.00214246
0.00218375
0.00222524
0.00226693
0.0023088
0.00235084
0.00239303
0.00243538
0.00247785
0.00252043
0.00256312
0.00260589
0.00264873
0.00269161
0.00273452
0.00277745
0.00282037
0.00286326
0.00290609
0.00294886
0.00299153
0.00303409
0.00307651
0.00311877
0.00316083
0.00320269
0.00324431
0.00328566
0.00332673
0.00336748
0.00340789
0.00344794
0.0034876
0.00352684
0.00356565
0.003604
0.00364188
0.00367925
0.0037161
0.0037524
0.00378812
0.00382325
0.00385774
0.00389159
0.00392475
0.00395721
0.00398894
0.00401992
0.00405012
0.00407951
0.00410807
0.00413579
0.00416262
0.00418856
0.00421358
0.00423766
0.00426078
0.00428291
0.00430405
0.00432418
0.00434327
0.00436132
0.00437832
0.00439424
0.00440913
0.00442321
0.00443612
0.00444797
0.00445845
0.004468
0.00447644
0.0044838
0.00449009
0.00449532
0.00449951
0.00450268
0.00450484
0.00450601
0.00450623
0.0045055
0.00450386
0.00450133
0.00449794
0.00449372
0.00448869
0.00448289
0.00447635
0.00446909
0.00446114
0.00445254
0.00444331
0.00443349
0.00442309
0.00441215
0.00440069
0.00438873
0.00437629
0.0043634
0.00435004
0.00433623
0.00432192
0.00430707
0.00429166
0.0042757
0.00425924
0.00424233
0.00422503
0.00420738
0.00418942
0.00417117
0.00415262
0.00413361
0.00411345
0.00409023
0.00405975
9.64869e-06
8.35632e-05
0.00017674
0.000256141
0.000319915
0.000370463
0.000410171
0.000441594
0.000466887
0.000487829
0.000505863
0.000522134
0.000537524
0.000552695
0.000568124
0.000584147
0.000600988
0.000618793
0.000637649
0.000657604
0.000678675
0.000700859
0.000724135
0.000748477
0.000773851
0.000800226
0.000827563
0.000855797
0.000884867
0.000914715
0.000945289
0.000976538
0.00100842
0.00104088
0.00107388
0.0011074
0.00114138
0.00117581
0.00121065
0.00124588
0.00128148
0.00131742
0.0013537
0.00139031
0.00142723
0.00146449
0.00150204
0.00153986
0.00157793
0.00161626
0.00165483
0.00169366
0.00173273
0.00177205
0.00181161
0.00185142
0.00189147
0.00193176
0.00197229
0.00201305
0.00205405
0.00209527
0.00213671
0.00217837
0.00222024
0.00226232
0.0023046
0.00234708
0.00238973
0.00243257
0.00247557
0.00251873
0.00256203
0.00260547
0.00264902
0.00269269
0.00273645
0.00278028
0.00282418
0.00286813
0.0029121
0.00295609
0.00300006
0.00304401
0.00308792
0.00313175
0.00317549
0.00321912
0.00326261
0.00330594
0.00334909
0.00339203
0.00343474
0.00347718
0.00351935
0.0035612
0.00360271
0.00364387
0.00368464
0.003725
0.00376493
0.0038044
0.00384338
0.00388185
0.0039198
0.00395718
0.00399397
0.00403015
0.00406569
0.00410056
0.00413474
0.00416819
0.0042009
0.00423284
0.00426398
0.00429429
0.00432376
0.00435235
0.00438004
0.00440681
0.00443263
0.00445749
0.00448136
0.00450422
0.00452605
0.00454684
0.00456656
0.00458521
0.00460275
0.00461932
0.00463489
0.00464932
0.00466262
0.00467466
0.00468568
0.00469555
0.00470427
0.00471187
0.00471837
0.00472378
0.00472813
0.00473142
0.00473367
0.00473492
0.00473517
0.00473446
0.00473281
0.00473026
0.00472682
0.00472253
0.00471742
0.00471153
0.00470488
0.0046975
0.00468944
0.00468071
0.00467136
0.0046614
0.00465087
0.0046398
0.00462821
0.00461613
0.00460357
0.00459056
0.00457709
0.00456316
0.00454875
0.00453384
0.00451845
0.00450261
0.00448636
0.00446975
0.00445283
0.00443566
0.00441828
0.00440071
0.00438283
0.00436413
0.00434308
0.0043172
1.02039e-05
8.45928e-05
0.00018208
0.000266856
0.000335544
0.000390673
0.000434434
0.000469444
0.00049792
0.000521698
0.000542269
0.00056082
0.000578276
0.000595338
0.000612522
0.000630195
0.000648604
0.00066791
0.000688215
0.000709585
0.000732048
0.000755579
0.00078014
0.00080569
0.000832166
0.000859481
0.000887708
0.000916796
0.000946694
0.00097735
0.00100872
0.00104075
0.0010734
0.00110664
0.00114042
0.00117471
0.00120948
0.00124469
0.00128033
0.00131636
0.00135276
0.00138952
0.00142661
0.00146401
0.0015017
0.00153963
0.00157782
0.00161626
0.00165492
0.00169378
0.00173286
0.00177214
0.00181164
0.00185135
0.00189128
0.00193142
0.00197177
0.00201234
0.00205313
0.00209412
0.00213533
0.00217675
0.00221838
0.00226022
0.00230227
0.00234452
0.00238697
0.00242961
0.00247245
0.00251548
0.00255869
0.00260208
0.00264563
0.00268934
0.00273319
0.00277719
0.00282131
0.00286554
0.00290988
0.0029543
0.00299879
0.00304333
0.0030879
0.0031325
0.00317708
0.00322165
0.00326617
0.00331062
0.00335498
0.00339923
0.00344334
0.00348728
0.00353103
0.00357456
0.00361786
0.00366088
0.0037036
0.00374601
0.00378806
0.00382974
0.00387101
0.00391186
0.00395224
0.00399215
0.00403154
0.0040704
0.00410869
0.00414639
0.00418347
0.0042199
0.00425565
0.0042907
0.00432502
0.00435858
0.00439135
0.00442332
0.00445444
0.0044847
0.00451407
0.00454252
0.00457003
0.00459657
0.00462212
0.00464667
0.00467018
0.00469264
0.00471402
0.00473432
0.00475351
0.00477171
0.00478878
0.00480477
0.00481961
0.00483325
0.0048458
0.00485714
0.00486727
0.00487625
0.00488409
0.00489081
0.00489641
0.00490092
0.00490435
0.00490672
0.00490806
0.00490839
0.00490773
0.00490612
0.00490358
0.00490016
0.00489587
0.00489075
0.00488484
0.00487817
0.00487078
0.0048627
0.00485396
0.00484459
0.00483464
0.00482412
0.00481307
0.00480152
0.00478949
0.004777
0.00476407
0.0047507
0.00473689
0.00472264
0.00470796
0.00469289
0.00467746
0.00466171
0.0046457
0.00462949
0.00461315
0.00459672
0.00458014
0.00456299
0.00454411
0.00452211
1.06788e-05
8.45692e-05
0.000185003
0.000274218
0.000347283
0.000406681
0.000454342
0.00049287
0.000524503
0.000551107
0.0005742
0.000595001
0.000614464
0.00063332
0.00065212
0.00067128
0.000691048
0.000711578
0.000732945
0.000755147
0.00077832
0.000802491
0.000827651
0.000853777
0.000880845
0.000908862
0.000937781
0.000967512
0.000997994
0.00102918
0.00106102
0.00109347
0.00112649
0.00116005
0.0011941
0.00122862
0.00126356
0.00129891
0.00133462
0.00137068
0.00140707
0.00144375
0.00148072
0.00151796
0.00155548
0.00159332
0.00163149
0.00166985
0.00170832
0.00174692
0.00178567
0.00182457
0.00186364
0.00190289
0.00194232
0.00198193
0.00202173
0.00206173
0.00210192
0.00214232
0.00218292
0.00222374
0.00226476
0.00230601
0.00234748
0.00238917
0.00243109
0.00247323
0.0025156
0.0025582
0.00260102
0.00264406
0.00268732
0.00273078
0.00277446
0.00281832
0.00286238
0.0029066
0.00295099
0.00299553
0.0030402
0.00308499
0.00312988
0.00317485
0.00321988
0.00326495
0.00331004
0.00335512
0.00340016
0.00344515
0.00349006
0.00353486
0.00357951
0.00362401
0.00366831
0.00371238
0.00375621
0.00379975
0.00384298
0.00388588
0.00392841
0.00397054
0.00401224
0.00405349
0.00409426
0.00413452
0.00417424
0.00421339
0.00425194
0.00428986
0.00432713
0.00436372
0.0043996
0.00443473
0.0044691
0.00450267
0.00453542
0.00456732
0.00459833
0.00462844
0.00465762
0.00468584
0.00471308
0.00473931
0.00476451
0.00478865
0.00481172
0.00483369
0.00485457
0.00487436
0.00489304
0.00491064
0.00492709
0.00494236
0.00495654
0.0049694
0.00498101
0.00499144
0.00500071
0.00500881
0.00501576
0.00502158
0.00502627
0.00502987
0.00503239
0.00503385
0.00503429
0.00503373
0.0050322
0.00502974
0.00502638
0.00502215
0.0050171
0.00501125
0.00500465
0.00499733
0.00498933
0.00498068
0.00497142
0.00496159
0.00495122
0.00494033
0.00492897
0.00491715
0.00490491
0.00489224
0.00487918
0.00486572
0.00485188
0.0048377
0.00482321
0.00480844
0.00479347
0.00477836
0.00476319
0.00474801
0.00473281
0.00471727
0.00470048
0.00468184
1.1077e-05
8.37323e-05
0.000185908
0.000278601
0.000355517
0.000418665
0.000469974
0.000511849
0.000546522
0.000575856
0.000601386
0.000624362
0.00064574
0.000666238
0.000686376
0.000706479
0.000727015
0.000748203
0.000770195
0.00079313
0.000817052
0.000841905
0.000867662
0.000894303
0.000921801
0.000950114
0.000979152
0.00100889
0.00103929
0.00107033
0.00110194
0.00113411