/*--------------------------------*- C++ -*----------------------------------*\
| =========                 |                                                 |
| \\      /  F ield         | OpenFOAM: The Open Source CFD Toolbox           |
|  \\    /   O peration     | Version:  2406                                  |
|   \\  /    A nd           | Website:  www.openfoam.com                      |
|    \\/     M anipulation  |                                                 |
\*---------------------------------------------------------------------------*/
FoamFile
{
    version     2.0;
    format      ascii;
    arch        "LSB;label=32;scalar=64";
    class       volScalarField;
    location    "250";
    object      p;
}
// * * * * * * * * * * * * * * * * * * * * * * * * * * * * * * * * * * * * * //

dimensions      [0 2 -2 0 0 0 0];

internalField   nonuniform List<scalar> 
12225
(
-1.7868
-3.94403
-5.03665
-5.35043
-5.52726
-5.70603
-5.85412
-5.96577
-6.0574
-6.14035
-6.2177
-6.2905
-6.36044
-6.42953
-6.50024
-6.57204
-6.65953
-6.71277
-4.91704
-5.7047
-5.90964
-5.82169
-5.79668
-5.86098
-5.94409
-6.0184
-6.08789
-6.15713
-6.22573
-6.29276
-6.35877
-6.42496
-6.493
-6.56419
-6.64331
-6.74622
-5.29705
-5.23101
-5.3505
-5.43759
-5.54598
-5.6885
-5.82332
-5.93378
-6.02779
-6.11343
-6.19317
-6.26789
-6.33913
-6.40865
-6.47847
-6.54981
-6.62747
-6.71032
-5.16975
-5.08231
-5.34157
-5.53372
-5.65625
-5.77752
-5.89113
-5.98552
-6.06667
-6.14186
-6.2134
-6.28172
-6.34781
-6.41293
-6.47843
-6.54503
-6.6139
-6.67975
-5.16133
-5.17587
-5.4229
-5.58795
-5.68092
-5.7794
-5.88166
-5.97211
-6.05217
-6.12724
-6.1991
-6.2679
-6.3343
-6.39925
-6.46367
-6.52777
-6.59111
-6.64999
-5.22238
-5.26744
-5.45397
-5.594
-5.68421
-5.78035
-5.88091
-5.97133
-6.05162
-6.12646
-6.19772
-6.2657
-6.33096
-6.39429
-6.45629
-6.51683
-6.57511
-6.62829
-5.285
-5.32724
-5.4713
-5.60167
-5.69579
-5.78957
-5.88561
-5.97327
-6.05185
-6.12509
-6.19479
-6.26126
-6.32493
-6.38635
-6.44584
-6.50306
-6.5571
-6.60566
-5.34052
-5.37771
-5.49525
-5.61612
-5.70969
-5.79885
-5.88936
-5.97382
-6.05059
-6.1223
-6.19052
-6.25557
-6.31771
-6.37727
-6.43437
-6.48861
-6.53912
-6.58416
-5.3923
-5.42614
-5.52374
-5.63261
-5.72274
-5.80737
-5.89286
-5.97413
-6.04898
-6.11905
-6.18567
-6.24914
-6.3096
-6.36721
-6.42196
-6.47345
-6.52097
-6.56325
-5.4414
-5.47201
-5.55342
-5.65006
-5.73566
-5.81615
-5.89694
-5.97476
-6.04735
-6.11553
-6.18034
-6.24204
-6.30066
-6.35626
-6.40874
-6.45775
-6.50275
-6.54285
-5.48763
-5.51475
-5.5832
-5.66857
-5.74895
-5.82531
-5.90155
-5.97573
-6.04576
-6.11184
-6.17467
-6.23446
-6.29116
-6.34473
-6.39505
-6.44183
-6.48469
-6.52301
-5.52718
-5.5512
-5.61016
-5.68628
-5.76141
-5.83386
-5.90609
-5.97687
-6.04437
-6.10837
-6.16928
-6.22722
-6.28211
-6.33384
-6.3823
-6.42723
-6.4684
-6.50535
-5.56352
-5.5849
-5.63605
-5.70394
-5.77377
-5.84231
-5.91071
-5.97815
-6.04305
-6.10491
-6.16384
-6.21991
-6.27299
-6.32294
-6.36965
-6.41291
-6.4526
-6.48838
-5.6013
-5.62007
-5.66396
-5.72371
-5.78764
-5.85172
-5.91597
-5.97969
-6.04157
-6.10089
-6.15754
-6.21145
-6.26249
-6.31049
-6.35534
-6.39691
-6.43512
-6.46978
-5.63902
-5.65525
-5.69265
-5.74474
-5.80247
-5.86167
-5.92151
-5.98125
-6.03975
-6.0962
-6.15027
-6.2018
-6.25062
-6.29656
-6.33951
-6.37938
-6.41616
-6.44975
-5.67436
-5.68826
-5.72014
-5.76541
-5.81708
-5.87125
-5.92662
-5.98229
-6.03723
-6.09059
-6.14192
-6.19093
-6.23745
-6.2813
-6.32237
-6.36063
-6.39607
-6.42867
-5.70394
-5.71592
-5.7434
-5.78304
-5.82932
-5.8788
-5.92996
-5.98178
-6.03326
-6.08358
-6.13218
-6.17875
-6.22304
-6.26491
-6.30425
-6.34104
-6.37529
-6.40701
-5.72278
-5.73338
-5.7578
-5.79345
-5.83572
-5.88154
-5.92932
-5.97801
-6.02663
-6.07437
-6.12066
-6.16513
-6.20754
-6.24774
-6.28565
-6.32123
-6.3545
-6.38551
-5.72315
-5.73311
-5.75621
-5.79018
-5.83072
-5.87485
-5.92095
-5.96801
-6.01508
-6.06138
-6.10631
-6.14953
-6.1908
-6.22999
-6.26704
-6.30192
-6.33466
-6.36535
-5.69895
-5.70944
-5.73375
-5.7695
-5.81192
-5.8575
-5.90464
-5.95251
-6.00025
-6.04702
-6.09226
-6.13565
-6.17701
-6.21623
-6.25326
-6.28812
-6.32083
-6.35151
-5.6647
-5.67609
-5.70288
-5.74252
-5.7888
-5.83738
-5.88695
-5.93701
-5.9866
-6.0348
-6.08112
-6.12536
-6.16742
-6.20719
-6.24467
-6.27991
-6.31299
-6.34402
-5.6224
-5.63451
-5.66509
-5.71137
-5.76333
-5.81549
-5.86811
-5.92133
-5.97372
-6.02406
-6.072
-6.11751
-6.16054
-6.20105
-6.23908
-6.27472
-6.30809
-6.33932
-5.57545
-5.58687
-5.62197
-5.67831
-5.73796
-5.79417
-5.85009
-5.90666
-5.9619
-6.0145
-6.06433
-6.11147
-6.15584
-6.19742
-6.23631
-6.27266
-6.30665
-6.33851
-5.5264
-5.53548
-5.57691
-5.64465
-5.7111
-5.77228
-5.83384
-5.89504
-5.95306
-6.00738
-6.05859
-6.10683
-6.152
-6.19411
-6.23336
-6.26998
-6.30412
-6.33592
-5.47525
-5.47656
-5.53956
-5.62145
-5.68527
-5.74616
-5.81395
-5.88187
-5.94452
-6.00224
-6.0563
-6.10684
-6.15369
-6.19699
-6.23705
-6.27422
-6.30882
-6.34134
-5.42898
-5.38053
-5.49647
-5.6182
-5.68101
-5.73392
-5.79884
-5.86583
-5.92784
-5.98561
-6.04041
-6.092
-6.13995
-6.18433
-6.22544
-6.26362
-6.29909
-6.33198
-5.44608
-5.24808
-5.38144
-5.55975
-5.66527
-5.74613
-5.82588
-5.89847
-5.9618
-6.01925
-6.07277
-6.12235
-6.16786
-6.20965
-6.24818
-6.28389
-6.31726
-6.34935
-5.58696
-5.33952
-5.31616
-5.37151
-5.45461
-5.56331
-5.67478
-5.77268
-5.85764
-5.93422
-6.00404
-6.067
-6.12334
-6.1739
-6.21948
-6.26075
-6.29849
-6.33404
-5.31495
-5.94568
-6.06445
-5.92461
-5.83704
-5.84447
-5.88676
-5.93177
-5.97746
-6.02576
-6.07486
-6.12232
-6.1668
-6.20824
-6.24669
-6.28203
-6.3146
-6.34578
-2.2605
-4.02761
-5.04096
-5.32255
-5.4491
-5.5919
-5.7219
-5.82267
-5.905
-5.97827
-6.04457
-6.10376
-6.15643
-6.20348
-6.24563
-6.28307
-6.31592
-6.34266
-7.12848
-7.12823
-7.12829
-7.12888
-7.12993
-7.13129
-7.13286
-7.13452
-7.13625
-7.13806
-7.13995
-7.14196
-7.14409
-7.14638
-7.14886
-7.15157
-7.15453
-7.15779
-7.16138
-7.16534
-7.1697
-7.1745
-7.1798
-7.18565
-7.19211
-7.19924
-7.20713
-7.21582
-7.22541
-7.23594
-7.24749
-7.2601
-7.2738
-7.28864
-7.30462
-7.32175
-7.34001
-7.35938
-7.37983
-7.40131
-7.42375
-7.4471
-7.47133
-7.4964
-7.52227
-7.54883
-7.57592
-7.60345
-7.63137
-7.65961
-7.68813
-7.71686
-7.74573
-7.77469
-7.80365
-7.83255
-7.86131
-7.88985
-7.91808
-7.9459
-7.97322
-7.99993
-8.02592
-8.05107
-8.07525
-8.09833
-8.12018
-8.14064
-8.15956
-8.17679
-8.19214
-8.20547
-8.21656
-8.22526
-8.23135
-8.23466
-8.23497
-8.2321
-8.22581
-8.21591
-8.20219
-8.18443
-8.16241
-8.13593
-8.10477
-8.06873
-8.02759
-7.98116
-7.92924
-7.87161
-7.80811
-7.73855
-7.66276
-7.58058
-7.49188
-7.39652
-7.29436
-7.18535
-7.06949
-6.94685
-6.81723
-6.68011
-6.53536
-6.38321
-6.22371
-6.05692
-5.88286
-5.70159
-5.51318
-5.31771
-5.11528
-4.90603
-4.6901
-4.46766
-4.23888
-4.00398
-3.76317
-3.51668
-3.26477
-3.00771
-2.74576
-2.47924
-2.20844
-1.93367
-1.65525
-1.37351
-1.08877
-0.801375
-0.511644
-0.219912
0.0735022
0.368271
0.664092
0.960647
1.25763
1.55471
1.85162
2.14809
2.44384
2.73864
3.03222
3.32438
3.61489
3.90357
4.19022
4.47468
4.75679
5.0364
5.31338
5.5876
5.85894
6.12731
6.39259
6.6547
6.91354
7.16905
7.42112
7.66971
7.91471
8.15608
8.39372
8.62757
8.85757
9.08365
9.30579
9.52401
9.73814
9.94782
10.1528
10.3532
10.5487
10.7393
10.9249
11.1054
11.2809
11.4513
11.6178
11.7811
11.9521
12.1266
-7.1288
-7.12864
-7.12874
-7.12938
-7.13039
-7.13155
-7.13275
-7.13396
-7.13517
-7.13639
-7.13769
-7.1391
-7.14068
-7.14246
-7.14444
-7.14667
-7.14915
-7.1519
-7.15493
-7.15829
-7.16203
-7.1662
-7.17087
-7.1761
-7.18195
-7.1885
-7.19583
-7.20402
-7.21314
-7.22325
-7.23442
-7.2467
-7.26013
-7.27473
-7.29051
-7.30745
-7.32554
-7.34475
-7.36503
-7.38632
-7.40858
-7.43174
-7.45573
-7.48051
-7.50602
-7.53216
-7.55884
-7.58599
-7.61353
-7.64142
-7.66959
-7.69797
-7.72652
-7.75515
-7.78381
-7.81243
-7.84092
-7.86921
-7.89721
-7.92483
-7.95197
-7.97853
-8.0044
-8.02946
-8.05359
-8.07666
-8.09852
-8.11904
-8.13806
-8.15542
-8.17096
-8.1845
-8.19587
-8.20488
-8.21134
-8.21506
-8.21584
-8.21347
-8.20775
-8.19848
-8.18543
-8.16839
-8.14716
-8.12153
-8.09127
-8.05618
-8.01606
-7.9707
-7.91991
-7.86348
-7.80125
-7.73302
-7.65863
-7.57793
-7.49076
-7.39699
-7.29648
-7.1891
-7.0747
-6.95307
-6.82408
-6.68791
-6.54466
-6.39418
-6.23642
-6.07139
-5.89912
-5.71963
-5.533
-5.33931
-5.13866
-4.93117
-4.71697
-4.49624
-4.26915
-4.03589
-3.79669
-3.55177
-3.30138
-3.04578
-2.78526
-2.52009
-2.25058
-1.97704
-1.69979
-1.41914
-1.13543
-0.848991
-0.560147
-0.269229
0.0234358
0.317528
0.612741
0.908767
1.20528
1.50198
1.79857
2.09477
2.39033
2.68498
2.97848
3.27061
3.56114
3.84989
4.13666
4.42129
4.70361
4.98346
5.26073
5.53527
5.80697
6.07572
6.34142
6.60398
6.86331
7.11933
7.37195
7.62111
7.86672
8.10873
8.34704
8.58159
8.81232
9.03915
9.26199
9.4806
9.69471
9.90427
10.1093
10.3096
10.5052
10.6959
10.8818
11.0627
11.2387
11.4101
11.5781
11.7432
11.9177
12.0875
-7.12719
-7.12738
-7.1279
-7.12876
-7.12975
-7.13068
-7.13149
-7.13221
-7.13288
-7.13355
-7.13428
-7.13513
-7.13611
-7.13726
-7.13861
-7.14018
-7.14201
-7.14414
-7.14662
-7.14951
-7.15285
-7.15671
-7.16116
-7.16627
-7.1721
-7.17873
-7.18621
-7.19462
-7.204
-7.2144
-7.22585
-7.23839
-7.25204
-7.26679
-7.28263
-7.29954
-7.3175
-7.33647
-7.35642
-7.37731
-7.39909
-7.4217
-7.4451
-7.46923
-7.49403
-7.51944
-7.54538
-7.57179
-7.59862
-7.62581
-7.65329
-7.68102
-7.70892
-7.73694
-7.76501
-7.79306
-7.82101
-7.84879
-7.87631
-7.90348
-7.9302
-7.95638
-7.9819
-8.00666
-8.03052
-8.05335
-8.07503
-8.09541
-8.11434
-8.13165
-8.14719
-8.16079
-8.17227
-8.18145
-8.18814
-8.19214
-8.19327
-8.19131
-8.18606
-8.17733
-8.16489
-8.14853
-8.12805
-8.10323
-8.07386
-8.03973
-8.00064
-7.95638
-7.90676
-7.85158
-7.79066
-7.72382
-7.65088
-7.57169
-7.48609
-7.39394
-7.29511
-7.18948
-7.0769
-6.95722
-6.83028
-6.69614
-6.55486
-6.4064
-6.2507
-6.08776
-5.91759
-5.74024
-5.55576
-5.36422
-5.16572
-4.96038
-4.74832
-4.52971
-4.30472
-4.07354
-3.83638
-3.59347
-3.34504
-3.09136
-2.83271
-2.56935
-2.3016
-2.02975
-1.75413
-1.47504
-1.19282
-0.907794
-0.620296
-0.33065
-0.0391911
0.253771
0.547926
0.842971
1.13858
1.43444
1.73027
2.02578
2.32071
2.6148
2.90781
3.19949
3.48964
3.77805
4.06454
4.34893
4.63104
4.91074
5.18788
5.46233
5.73397
6.00269
6.26838
6.53096
6.79032
7.04638
7.29906
7.54828
7.79396
8.03602
8.27439
8.50901
8.73981
8.96674
9.18974
9.40868
9.62339
9.83371
10.0395
10.2407
10.4373
10.629
10.8159
10.998
11.1754
11.3485
11.5188
11.686
11.8636
12.0221
-7.12305
-7.1238
-7.12505
-7.12638
-7.12755
-7.12849
-7.12923
-7.12982
-7.1303
-7.13076
-7.13125
-7.13183
-7.13255
-7.13345
-7.13456
-7.13592
-7.13758
-7.13957
-7.14197
-7.14482
-7.14818
-7.15213
-7.15673
-7.16204
-7.16812
-7.17503
-7.18283
-7.19156
-7.20125
-7.21194
-7.22364
-7.23637
-7.25014
-7.26492
-7.28072
-7.29752
-7.31528
-7.33399
-7.3536
-7.37409
-7.3954
-7.41751
-7.44035
-7.46388
-7.48806
-7.51283
-7.53813
-7.56392
-7.59013
-7.61672
-7.64362
-7.67079
-7.69817
-7.72568
-7.75327
-7.78087
-7.8084
-7.8358
-7.86296
-7.88981
-7.91624
-7.94217
-7.96747
-7.99204
-8.01576
-8.03849
-8.0601
-8.08044
-8.09938
-8.11675
-8.13239
-8.14612
-8.15779
-8.16719
-8.17415
-8.17848
-8.17997
-8.17843
-8.17365
-8.16543
-8.15355
-8.13781
-8.11799
-8.09389
-8.06528
-8.03197
-7.99375
-7.95041
-7.90175
-7.84758
-7.78771
-7.72197
-7.65018
-7.57217
-7.48778
-7.39687
-7.29929
-7.19493
-7.08365
-6.96533
-6.83987
-6.70729
-6.56756
-6.42065
-6.26653
-6.10519
-5.93664
-5.76091
-5.57806
-5.38815
-5.19128
-4.98756
-4.77713
-4.56012
-4.33671
-4.1071
-3.87148
-3.63008
-3.38313
-3.1309
-2.87364
-2.61165
-2.34522
-2.07464
-1.80024
-1.52232
-1.24122
-0.957257
-0.670768
-0.38208
-0.0915234
0.200596
0.493969
0.788279
1.0832
1.37843
1.67369
1.9687
2.26317
2.55684
2.84948
3.14084
3.4307
3.71887
4.00516
4.28937
4.57135
4.85094
5.128
5.4024
5.674
5.94271
6.2084
6.47099
6.73037
6.98647
7.23919
7.48845
7.73417
7.97629
8.21474
8.44946
8.68035
8.90736
9.13043
9.34948
9.56438
9.77502
9.98122
10.1829
10.3799
10.5721
10.7596
10.9424
11.1207
11.2947
11.466
11.6333
11.8097
11.955
-7.11668
-7.11813
-7.12045
-7.12257
-7.12418
-7.12538
-7.12628
-7.12695
-7.12747
-7.12794
-7.12842
-7.12899
-7.12971
-7.13062
-7.13178
-7.13323
-7.13502
-7.13721
-7.13984
-7.14297
-7.14668
-7.15101
-7.15602
-7.16177
-7.1683
-7.17567
-7.18391
-7.19306
-7.20314
-7.21416
-7.22615
-7.2391
-7.25301
-7.26788
-7.28369
-7.30043
-7.31806
-7.33657
-7.35593
-7.3761
-7.39705
-7.41875
-7.44115
-7.46421
-7.4879
-7.51217
-7.53697
-7.56226
-7.58799
-7.6141
-7.64055
-7.66728
-7.69424
-7.72136
-7.74859
-7.77585
-7.80306
-7.83017
-7.85707
-7.88369
-7.90992
-7.93568
-7.96084
-7.9853
-8.00893
-8.03162
-8.05321
-8.07357
-8.09256
-8.11
-8.12576
-8.13964
-8.15148
-8.1611
-8.16831
-8.17291
-8.17472
-8.17352
-8.16913
-8.16132
-8.14989
-8.13464
-8.11534
-8.09178
-8.06376
-8.03107
-7.99349
-7.95083
-7.90288
-7.84945
-7.79036
-7.72541
-7.65444
-7.57727
-7.49375
-7.40373
-7.30707
-7.20363
-7.09331
-6.97599
-6.85159
-6.72009
-6.58143
-6.4356
-6.28256
-6.1223
-5.95484
-5.7802
-5.59844
-5.40962
-5.21384
-5.0112
-4.80183
-4.58588
-4.36352
-4.13493
-3.90031
-3.6599
-3.41391
-3.16262
-2.90628
-2.64518
-2.3796
-2.10985
-1.83624
-1.55909
-1.27872
-0.995458
-0.709633
-0.421583
-0.131622
0.159938
0.452793
0.746598
1.04105
1.33585
1.63072
1.92537
2.21951
2.51289
2.80526
3.09638
3.38604
3.67403
3.96016
4.24425
4.52613
4.80565
5.08265
5.35701
5.62861
5.89732
6.16303
6.42566
6.6851
6.94126
7.19406
7.44342
7.68927
7.93153
8.17011
8.40495
8.63595
8.86304
9.08613
9.30516
9.52003
9.73067
9.93693
10.1387
10.3358
10.5283
10.7161
10.8991
11.0777
11.2519
11.4231
11.5891
11.7623
11.8953
-7.10901
-7.11121
-7.11476
-7.11783
-7.12006
-7.1217
-7.12293
-7.12386
-7.12461
-7.12527
-7.12594
-7.12669
-7.1276
-7.12873
-7.13014
-7.13188
-7.13401
-7.13657
-7.13962
-7.14321
-7.14741
-7.15225
-7.15779
-7.16408
-7.17115
-7.17904
-7.18777
-7.19737
-7.20785
-7.21923
-7.23152
-7.2447
-7.25878
-7.27375
-7.28959
-7.30628
-7.32382
-7.34218
-7.36133
-7.38125
-7.40191
-7.42328
-7.44534
-7.46804
-7.49135
-7.51523
-7.53965
-7.56455
-7.5899
-7.61565
-7.64175
-7.66815
-7.69479
-7.72162
-7.74857
-7.77559
-7.80258
-7.82949
-7.85623
-7.8827
-7.90882
-7.93448
-7.95958
-7.98401
-8.00763
-8.03033
-8.05197
-8.0724
-8.09148
-8.10905
-8.12495
-8.139
-8.15104
-8.16088
-8.16833
-8.1732
-8.17529
-8.17441
-8.17034
-8.16289
-8.15184
-8.13698
-8.11809
-8.09497
-8.06741
-8.03519
-7.9981
-7.95595
-7.90853
-7.85564
-7.7971
-7.73273
-7.66234
-7.58577
-7.50287
-7.41347
-7.31745
-7.21467
-7.10503
-6.9884
-6.86473
-6.73394
-6.59601
-6.4509
-6.29857
-6.13903
-5.97228
-5.79835
-5.61729
-5.42918
-5.23409
-5.03214
-4.82345
-4.60817
-4.38646
-4.15852
-3.92454
-3.68475
-3.43937
-3.18867
-2.93291
-2.67237
-2.40734
-2.13813
-1.86503
-1.58838
-1.30849
-1.0257
-0.740332
-0.452721
-0.163178
0.127986
0.420447
0.713864
1.00795
1.30241
1.59696
1.8913
2.18515
2.47825
2.77035
3.06122
3.35065
3.63843
3.92436
4.20826
4.48998
4.76935
5.04622
5.32047
5.59196
5.86059
6.12624
6.38881
6.64821
6.90436
7.15717
7.40655
7.65243
7.89472
8.13335
8.36824
8.59931
8.82646
9.04959
9.26862
9.48348
9.6941
9.90037
10.1022
10.2994
10.492
10.6799
10.8631
11.0417
11.2157
11.3863
11.5504
11.7203
11.8425
-7.1013
-7.10418
-7.10893
-7.11298
-7.11589
-7.11806
-7.11974
-7.12106
-7.12215
-7.12314
-7.12413
-7.12521
-7.12647
-7.12797
-7.12977
-7.13193
-7.13451
-7.13756
-7.14112
-7.14525
-7.14999
-7.15539
-7.16149
-7.16831
-7.1759
-7.18428
-7.19347
-7.20349
-7.21434
-7.22604
-7.23859
-7.25198
-7.26621
-7.28127
-7.29714
-7.31383
-7.33131
-7.34956
-7.36857
-7.38832
-7.40878
-7.42992
-7.45173
-7.47417
-7.49721
-7.52081
-7.54494
-7.56957
-7.59465
-7.62014
-7.646
-7.67216
-7.6986
-7.72523
-7.75202
-7.77888
-7.80575
-7.83256
-7.85921
-7.88563
-7.91172
-7.93738
-7.9625
-7.98696
-8.01065
-8.03343
-8.05517
-8.07573
-8.09495
-8.11269
-8.12876
-8.14301
-8.15526
-8.16532
-8.17301
-8.17813
-8.18049
-8.17988
-8.17611
-8.16895
-8.15821
-8.14366
-8.1251
-8.10232
-8.0751
-8.04322
-8.00649
-7.9647
-7.91765
-7.86514
-7.80698
-7.74299
-7.673
-7.59683
-7.51432
-7.42533
-7.32972
-7.22736
-7.11814
-7.00196
-6.87873
-6.7484
-6.61091
-6.46623
-6.31434
-6.15522
-5.98889
-5.81538
-5.63474
-5.44703
-5.25234
-5.05078
-4.84248
-4.62758
-4.40625
-4.17868
-3.94506
-3.70562
-3.4606
-3.21024
-2.95482
-2.69461
-2.4299
-2.16101
-1.88823
-1.61189
-1.33232
-1.04983
-0.764773
-0.477463
-0.188218
0.102649
0.394794
0.687901
0.981684
1.27586
1.57012
1.86417
2.15773
2.45054
2.74236
3.03296
3.32212
3.60963
3.89531
4.17897
4.46044
4.73958
5.01624
5.29028
5.56158
5.83002
6.0955
6.35792
6.61719
6.87322
7.12591
7.3752
7.621
7.86324
8.10182
8.33669
8.56774
8.79489
9.01804
9.23708
9.45194
9.66257
9.86885
10.0707
10.268
10.4607
10.6486
10.8319
11.0104
11.1841
11.3538
11.5158
11.6828
11.7955
-7.09462
-7.09805
-7.1038
-7.10875
-7.11234
-7.11506
-7.11721
-7.11897
-7.12047
-7.12186
-7.12325
-7.12474
-7.12641
-7.12835
-7.13061
-7.13325
-7.13632
-7.13989
-7.14398
-7.14864
-7.15392
-7.15984
-7.16645
-7.17378
-7.18184
-7.19066
-7.20025
-7.21063
-7.2218
-7.23377
-7.24654
-7.26011
-7.27448
-7.28963
-7.30556
-7.32225
-7.33971
-7.35791
-7.37683
-7.39647
-7.41679
-7.43779
-7.45943
-7.4817
-7.50456
-7.52799
-7.55195
-7.5764
-7.60132
-7.62665
-7.65236
-7.67841
-7.70473
-7.73128
-7.75799
-7.7848
-7.81164
-7.83844
-7.8651
-7.89156
-7.9177
-7.94343
-7.96864
-7.99321
-8.01702
-8.03994
-8.06184
-8.08257
-8.10197
-8.11989
-8.13617
-8.15062
-8.16309
-8.17337
-8.18129
-8.18664
-8.18924
-8.18887
-8.18533
-8.17841
-8.16791
-8.1536
-8.13528
-8.11274
-8.08575
-8.05411
-8.01761
-7.97605
-7.92923
-7.87694
-7.81901
-7.75524
-7.68547
-7.60952
-7.52723
-7.43846
-7.34306
-7.24092
-7.13192
-7.01596
-6.89296
-6.76285
-6.62558
-6.48111
-6.32942
-6.1705
-6.00436
-5.83104
-5.65058
-5.46305
-5.26853
-5.06714
-4.85901
-4.64427
-4.4231
-4.19568
-3.96222
-3.72293
-3.47806
-3.22786
-2.97259
-2.71254
-2.448
-2.17927
-1.90666
-1.6305
-1.35111
-1.06882
-0.783966
-0.496862
-0.20783
0.0827984
0.374687
0.667538
0.961074
1.255
1.54899
1.84276
2.13603
2.42855
2.72008
3.01038
3.29924
3.58645
3.87184
4.1552
4.43638
4.71523
4.99161
5.26538
5.53642
5.80461
6.06985
6.33205
6.59111
6.84693
7.09945
7.34858
7.59423
7.83634
8.07482
8.30959
8.54057
8.76766
8.99077
9.20979
9.42464
9.63525
9.84154
10.0434
10.2407
10.4335
10.6214
10.8046
10.983
11.1561
11.3248
11.4847
11.6491
11.7536
-7.08978
-7.09359
-7.1
-7.10566
-7.10986
-7.11309
-7.11571
-7.1179
-7.11982
-7.12162
-7.12343
-7.12534
-7.12744
-7.12982
-7.13253
-7.13564
-7.13919
-7.14323
-7.14781
-7.15296
-7.15871
-7.1651
-7.17216
-7.1799
-7.18836
-7.19755
-7.20748
-7.21816
-7.2296
-7.2418
-7.25476
-7.26849
-7.28298
-7.29822
-7.31421
-7.33094
-7.3484
-7.36658
-7.38547
-7.40506
-7.42531
-7.44623
-7.46779
-7.48997
-7.51274
-7.53608
-7.55996
-7.58434
-7.60918
-7.63446
-7.66012
-7.68614
-7.71244
-7.73899
-7.76572
-7.79257
-7.81947
-7.84633
-7.87309
-7.89965
-7.92591
-7.95178
-7.97714
-8.00188
-8.02586
-8.04897
-8.07106
-8.09198
-8.11158
-8.12971
-8.14619
-8.16086
-8.17353
-8.18402
-8.19214
-8.19769
-8.20048
-8.2003
-8.19694
-8.1902
-8.17986
-8.16571
-8.14754
-8.12513
-8.09828
-8.06676
-8.03038
-7.98892
-7.94219
-7.89
-7.83215
-7.76846
-7.69875
-7.62286
-7.54063
-7.45192
-7.35657
-7.25448
-7.14553
-7.02962
-6.90666
-6.77659
-6.63935
-6.4949
-6.34323
-6.18433
-6.01821
-5.84489
-5.66443
-5.4769
-5.28238
-5.08099
-4.87285
-4.65811
-4.43694
-4.20953
-3.97607
-3.73679
-3.49193
-3.24175
-2.98651
-2.7265
-2.462
-2.19334
-1.92081
-1.64474
-1.36545
-1.08329
-0.798564
-0.511612
-0.222754
0.0676675
0.359337
0.651961
0.94527
1.23894
1.53267
1.82615
2.11912
2.41134
2.70255
2.99252
3.28105
3.56792
3.85296
4.13599
4.41684
4.69535
4.9714
5.24485
5.51557
5.78346
6.04841
6.31033
6.56913
6.82471
7.077
7.32592
7.5714
7.81334
8.05167
8.28631
8.51718
8.74418
8.96721
9.18617
9.40099
9.61158
9.81787
10.0197
10.2171
10.4098
10.5977
10.7808
10.9588
11.1314
11.2989
11.4567
11.6188
11.7163
-7.08719
-7.09119
-7.0979
-7.10403
-7.1087
-7.11236
-7.11539
-7.11797
-7.12028
-7.12247
-7.12466
-7.12696
-7.12946
-7.13224
-7.13536
-7.13888
-7.14284
-7.14729
-7.15228
-7.15783
-7.16397
-7.17074
-7.17816
-7.18626
-7.19504
-7.20452
-7.21472
-7.22564
-7.23729
-7.24968
-7.2628
-7.27666
-7.29125
-7.30658
-7.32264
-7.33941
-7.35691
-7.3751
-7.394
-7.41358
-7.43382
-7.45473
-7.47627
-7.49844
-7.5212
-7.54454
-7.56841
-7.5928
-7.61766
-7.64297
-7.66867
-7.69474
-7.72111
-7.74774
-7.77457
-7.80153
-7.82856
-7.85557
-7.88248
-7.9092
-7.93564
-7.96169
-7.98724
-8.01218
-8.03637
-8.05968
-8.08197
-8.1031
-8.12291
-8.14123
-8.15791
-8.17276
-8.18561
-8.19627
-8.20455
-8.21024
-8.21317
-8.2131
-8.20985
-8.2032
-8.19294
-8.17886
-8.16074
-8.13837
-8.11153
-8.08003
-8.04364
-8.00217
-7.95541
-7.90318
-7.84528
-7.78153
-7.71176
-7.6358
-7.55349
-7.46468
-7.36925
-7.26707
-7.15801
-7.042
-6.91894
-6.78876
-6.65141
-6.50685
-6.35506
-6.19603
-6.02978
-5.85634
-5.67575
-5.48809
-5.29345
-5.09193
-4.88367
-4.66881
-4.44753
-4.22001
-3.98645
-3.74709
-3.50215
-3.25191
-2.99662
-2.73657
-2.47206
-2.20339
-1.93089
-1.65486
-1.37564
-1.09356
-0.808951
-0.522135
-0.233449
0.0567761
0.34823
0.640629
0.933699
1.22711
1.52053
1.8137
2.10634
2.39821
2.68906
2.97867
3.26682
3.55332
3.83797
4.1206
4.40106
4.67918
4.95485
5.22792
5.49827
5.76581
6.03042
6.29202
6.55051
6.80581
7.05784
7.30652
7.55177
7.79351
8.03167
8.26616
8.49689
8.72377
8.94671
9.16561
9.38038
9.59095
9.79721
9.99907
10.1964
10.3891
10.5769
10.7598
10.9374
11.1093
11.2756
11.4315
11.5916
11.6832
-7.08691
-7.0909
-7.09764
-7.10398
-7.10894
-7.11292
-7.11625
-7.11915
-7.12178
-7.1243
-7.12682
-7.12945
-7.13228
-7.13539
-7.13884
-7.14269
-7.14698
-7.15177
-7.15707
-7.16293
-7.16938
-7.17644
-7.18413
-7.19248
-7.2015
-7.2112
-7.22159
-7.23269
-7.2445
-7.25702
-7.27027
-7.28423
-7.29892
-7.31433
-7.33045
-7.34728
-7.36483
-7.38307
-7.40201
-7.42162
-7.44191
-7.46286
-7.48445
-7.50667
-7.5295
-7.5529
-7.57685
-7.60131
-7.62627
-7.65167
-7.6775
-7.70369
-7.7302
-7.75698
-7.78397
-7.8111
-7.8383
-7.8655
-7.89261
-7.91953
-7.94618
-7.97244
-7.9982
-8.02334
-8.04773
-8.07124
-8.09373
-8.11504
-8.13502
-8.15351
-8.17034
-8.18532
-8.19829
-8.20905
-8.21741
-8.22318
-8.22615
-8.22613
-8.22289
-8.21623
-8.20595
-8.19183
-8.17365
-8.1512
-8.12428
-8.09266
-8.05615
-8.01455
-7.96764
-7.91525
-7.85718
-7.79325
-7.72329
-7.64714
-7.56463
-7.47562
-7.37998
-7.27758
-7.16832
-7.05209
-6.92881
-6.79841
-6.66084
-6.51606
-6.36405
-6.2048
-6.03833
-5.86466
-5.68386
-5.49599
-5.30114
-5.09941
-4.89096
-4.67591
-4.45445
-4.22676
-3.99305
-3.75354
-3.50849
-3.25814
-3.00276
-2.74265
-2.4781
-2.20942
-1.93692
-1.66093
-1.38177
-1.09978
-0.815295
-0.528635
-0.240142
0.0498709
0.341083
0.633229
0.926021
1.21912
1.5122
1.80501
2.09728
2.38875
2.67919
2.96836
3.25608
3.54212
3.82632
4.1085
4.3885
4.66618
4.9414
5.21403
5.48397
5.7511
6.01532
6.27655
6.53469
6.78967
7.0414
7.28981
7.53481
7.77633
8.01429
8.24861
8.4792
8.70596
8.9288
9.14762
9.36234
9.57288
9.77911
9.98095
10.1783
10.3709
10.5586
10.7412
10.9185
11.0896
11.2548
11.4088
11.5671
11.6538
-7.08878
-7.09262
-7.09914
-7.10546
-7.11054
-7.11469
-7.11822
-7.12134
-7.1242
-7.12694
-7.12971
-7.13258
-7.13567
-7.13903
-7.14272
-7.14681
-7.15134
-7.15635
-7.16188
-7.16796
-7.17461
-7.18186
-7.18973
-7.19824
-7.20741
-7.21725
-7.22777
-7.23899
-7.25091
-7.26353
-7.27687
-7.29092
-7.30569
-7.32117
-7.33736
-7.35427
-7.37189
-7.3902
-7.40922
-7.42892
-7.4493
-7.47034
-7.49203
-7.51434
-7.53727
-7.56078
-7.58485
-7.60946
-7.63457
-7.66014
-7.68613
-7.7125
-7.7392
-7.76617
-7.79335
-7.82068
-7.84809
-7.87549
-7.90281
-7.92994
-7.95678
-7.98324
-8.00919
-8.03451
-8.05907
-8.08274
-8.10536
-8.1268
-8.14689
-8.16546
-8.18236
-8.19739
-8.21039
-8.22116
-8.22951
-8.23524
-8.23815
-8.23804
-8.23471
-8.22793
-8.21751
-8.20323
-8.18487
-8.16224
-8.1351
-8.10326
-8.06652
-8.02466
-7.9775
-7.92483
-7.86649
-7.80228
-7.73203
-7.65557
-7.57277
-7.48346
-7.38753
-7.28483
-7.17527
-7.05874
-6.93517
-6.80447
-6.66661
-6.52154
-6.36924
-6.20971
-6.04296
-5.86903
-5.68796
-5.49983
-5.30472
-5.10276
-4.89408
-4.67882
-4.45716
-4.22928
-3.99541
-3.75576
-3.51058
-3.26012
-3.00467
-2.7445
-2.47993
-2.21125
-1.93878
-1.66285
-1.38379
-1.10193
-0.817604
-0.531145
-0.242878
0.0468754
0.3378
0.629642
0.922094
1.2148
1.50748
1.79986
2.09167
2.38267
2.67262
2.96129
3.24849
3.53401
3.81768
4.09933
4.37881
4.65597
4.93068
5.20283
5.47229
5.73896
6.00274
6.26355
6.5213
6.77592
7.02731
7.27541
7.52014
7.76141
7.99916
8.23329
8.46371
8.69034
8.91308
9.13183
9.3465
9.557
9.76321
9.96503
10.1623
10.3548
10.5424
10.7248
10.9016
11.0719
11.236
11.3884
11.5449
11.6277
-7.0925
-7.09609
-7.10222
-7.10832
-7.11335
-7.11752
-7.12112
-7.12433
-7.12731
-7.13019
-7.1331
-7.13613
-7.13936
-7.14286
-7.14671
-7.15094
-7.1556
-7.16074
-7.16639
-7.17258
-7.17934
-7.18669
-7.19466
-7.20326
-7.21252
-7.22245
-7.23305
-7.24434
-7.25633
-7.26902
-7.28242
-7.29654
-7.31137
-7.32692
-7.34319
-7.36018
-7.37788
-7.3963
-7.41541
-7.43522
-7.4557
-7.47685
-7.49866
-7.5211
-7.54416
-7.56782
-7.59206
-7.61684
-7.64214
-7.66791
-7.6941
-7.72067
-7.74756
-7.77473
-7.8021
-7.82962
-7.85722
-7.8848
-7.91228
-7.93958
-7.96658
-7.99317
-8.01924
-8.04466
-8.0693
-8.09303
-8.11569
-8.13715
-8.15723
-8.17578
-8.19262
-8.20758
-8.22048
-8.23112
-8.23932
-8.24489
-8.24761
-8.2473
-8.24373
-8.23671
-8.22603
-8.21146
-8.19281
-8.16986
-8.1424
-8.11023
-8.07314
-8.03093
-7.98341
-7.93039
-7.87167
-7.80709
-7.73647
-7.65965
-7.57649
-7.48682
-7.39053
-7.28748
-7.17757
-7.0607
-6.93678
-6.80576
-6.66758
-6.52219
-6.36959
-6.20976
-6.04272
-5.86851
-5.68718
-5.49879
-5.30345
-5.10126
-4.89236
-4.67691
-4.45507
-4.22704
-3.99302
-3.75326
-3.50798
-3.25746
-3.00196
-2.74179
-2.47723
-2.2086
-1.93622
-1.66041
-1.38151
-1.09985
-0.815762
-0.529577
-0.241608
0.0477966
0.338353
0.629809
0.921824
1.21405
1.50623
1.79808
2.08935
2.37979
2.66915
2.95724
3.24383
3.52875
3.81181
4.09285
4.37173
4.64831
4.92244
5.19403
5.46295
5.7291
5.9924
6.25274
6.51006
6.76427
7.0153
7.26306
7.50749
7.7485
7.98602
8.21995
8.45021
8.6767
8.89934
9.11801
9.33264
9.5431
9.74929
9.95108
10.1483
10.3408
10.5282
10.7103
10.8866
11.0562
11.2192
11.37
11.5249
11.6046
-7.09775
-7.10102
-7.10664
-7.11237
-7.1172
-7.12125
-7.12478
-7.12796
-7.13093
-7.13382
-7.13674
-7.1398
-7.14307
-7.14662
-7.1505
-7.15477
-7.15947
-7.16464
-7.17033
-7.17656
-7.18335
-7.19074
-7.19874
-7.20737
-7.21666
-7.22661
-7.23724
-7.24855
-7.26057
-7.2733
-7.28675
-7.30092
-7.31581
-7.33142
-7.34776
-7.36482
-7.3826
-7.4011
-7.4203
-7.44021
-7.4608
-7.48207
-7.50401
-7.5266
-7.54982
-7.57365
-7.59807
-7.62303
-7.64851
-7.67445
-7.70081
-7.72755
-7.75459
-7.7819
-7.8094
-7.83704
-7.86474
-7.89241
-7.91997
-7.94732
-7.97435
-8.00095
-8.02701
-8.05239
-8.07697
-8.10061
-8.12316
-8.14448
-8.1644
-8.18275
-8.19938
-8.21411
-8.22675
-8.23712
-8.24502
-8.25027
-8.25266
-8.252
-8.24807
-8.24067
-8.22959
-8.21463
-8.19557
-8.17221
-8.14434
-8.11175
-8.07424
-8.03161
-7.98366
-7.93022
-7.87108
-7.80609
-7.73507
-7.65786
-7.5743
-7.48426
-7.38759
-7.28418
-7.17391
-7.0567
-6.93246
-6.80111
-6.66262
-6.51694
-6.36405
-6.20395
-6.03665
-5.86219
-5.68062
-5.49202
-5.29648
-5.09411
-4.88505
-4.66945
-4.44749
-4.21936
-3.98528
-3.74546
-3.50017
-3.24966
-2.9942
-2.7341
-2.46965
-2.20117
-1.92896
-1.65338
-1.37474
-1.09339
-0.80965
-0.52383
-0.236281
0.0526618
0.342753
0.633712
0.925166
1.2168
1.50837
1.7996
2.09021
2.37998
2.66867
2.95605
3.24195
3.52616
3.80853
4.08888
4.36708
4.64299
4.91648
5.18744
5.45576
5.72134
5.98409
6.24393
6.50077
6.75454
7.00516
7.25257
7.49667
7.7374
7.97467
8.20839
8.43848
8.66484
8.88738
9.10598
9.32056
9.531
9.73718
9.93895
10.1361
10.3285
10.5158
10.6976
10.8734
11.0423
11.2042
11.3536
11.507
11.5844
-7.1042
-7.10711
-7.11216
-7.11741
-7.12189
-7.12567
-7.12898
-7.13197
-7.13478
-7.13754
-7.14036
-7.14332
-7.1465
-7.14998
-7.1538
-7.15802
-7.16269
-7.16783
-7.17348
-7.17967
-7.18644
-7.1938
-7.20177
-7.21038
-7.21964
-7.22957
-7.24018
-7.25149
-7.2635
-7.27623
-7.28967
-7.30385
-7.31876
-7.3344
-7.35077
-7.36788
-7.38572
-7.40427
-7.42355
-7.44354
-7.46423
-7.48562
-7.50768
-7.5304
-7.55375
-7.57771
-7.60223
-7.6273
-7.65286
-7.67888
-7.7053
-7.73207
-7.75914
-7.78645
-7.81393
-7.84154
-7.86918
-7.89678
-7.92424
-7.95146
-7.97834
-8.00477
-8.03062
-8.05577
-8.08009
-8.10344
-8.12569
-8.14667
-8.16624
-8.18423
-8.20047
-8.21479
-8.22701
-8.23695
-8.24441
-8.24921
-8.25114
-8.25001
-8.24561
-8.23773
-8.22618
-8.21073
-8.19119
-8.16735
-8.139
-8.10594
-8.06796
-8.02487
-7.97648
-7.92259
-7.86302
-7.79762
-7.72619
-7.64859
-7.56466
-7.47425
-7.37724
-7.27349
-7.16291
-7.0454
-6.92087
-6.78926
-6.65051
-6.50459
-6.35148
-6.19118
-6.0237
-5.84907
-5.66736
-5.47863
-5.28298
-5.08052
-4.8714
-4.65576
-4.43378
-4.20567
-3.97162
-3.73187
-3.48668
-3.2363
-2.98101
-2.72111
-2.45689
-2.18868
-1.91679
-1.64157
-1.36334
-1.08242
-0.799138
-0.513828
-0.226852
0.0615073
0.351014
0.641334
0.932089
1.22301
1.51385
1.80432
2.09417
2.38315
2.67104
2.95762
3.24271
3.52613
3.8077
4.08727
4.36471
4.63987
4.91264
5.18291
5.45057
5.71552
5.97768
6.23696
6.49328
6.74658
6.99678
7.24379
7.48756
7.72799
7.965
8.19852
8.42843
8.65466
8.8771
9.09564
9.31018
9.52061
9.72678
9.92854
10.1257
10.318
10.5051
10.6866
10.862
11.0301
11.1911
11.3391
11.491
11.5667
-7.11186
-7.11442
-7.11887
-7.12353
-7.12752
-7.13085
-7.13375
-7.13636
-7.13884
-7.1413
-7.14385
-7.14658
-7.14957
-7.15288
-7.15655
-7.16064
-7.16519
-7.17022
-7.17577
-7.18186
-7.18852
-7.19578
-7.20366
-7.21217
-7.22133
-7.23117
-7.24169
-7.25292
-7.26485
-7.2775
-7.29088
-7.305
-7.31985
-7.33544
-7.35177
-7.36885
-7.38666
-7.40522
-7.4245
-7.44451
-7.46522
-7.48661
-7.50867
-7.53138
-7.5547
-7.5786
-7.60306
-7.62803
-7.65347
-7.67935
-7.70561
-7.7322
-7.75907
-7.78615
-7.8134
-7.84075
-7.86812
-7.89541
-7.92253
-7.94938
-7.97587
-8.00187
-8.02727
-8.05195
-8.07578
-8.09863
-8.12036
-8.14081
-8.15983
-8.17726
-8.19294
-8.2067
-8.21835
-8.22772
-8.23462
-8.23885
-8.24022
-8.23852
-8.23357
-8.22514
-8.21305
-8.19708
-8.17702
-8.15268
-8.12383
-8.09029
-8.05185
-8.00832
-7.95949
-7.9052
-7.84526
-7.77949
-7.70772
-7.62978
-7.54554
-7.45484
-7.35755
-7.25356
-7.14275
-7.02502
-6.90031
-6.76853
-6.62964
-6.48359