/*--------------------------------*- C++ -*----------------------------------*\
| =========                 |                                                 |
| \\      /  F ield         | OpenFOAM: The Open Source CFD Toolbox           |
|  \\    /   O peration     | Version:  2406                                  |
|   \\  /    A nd           | Website:  www.openfoam.com                      |
|    \\/     M anipulation  |                                                 |
\*---------------------------------------------------------------------------*/
FoamFile
{
    version     2.0;
    format      ascii;
    arch        "LSB;label=32;scalar=64";
    class       surfaceScalarField;
    location    "250";
    object      phi;
}
// * * * * * * * * * * * * * * * * * * * * * * * * * * * * * * * * * * * * * //

dimensions      [0 3 -1 0 0 0 0];

oriented        oriented;

internalField   nonuniform List<scalar> 
24170
(
3.11512e-06
7.32903e-08
3.01296e-06
1.02153e-07
2.91749e-06
9.54724e-08
2.82631e-06
9.11804e-08
2.7403e-06
8.60065e-08
2.66278e-06
7.75223e-08
2.59488e-06
6.7902e-08
2.53596e-06
5.89178e-08
2.48491e-06
5.10473e-08
2.44064e-06
4.42682e-08
2.40219e-06
3.84501e-08
2.36874e-06
3.34463e-08
2.33963e-06
2.91099e-08
2.31431e-06
2.53194e-08
2.29248e-06
2.18334e-08
2.27365e-06
1.8834e-08
2.25761e-06
1.60334e-08
1.2682e-08
2.24493e-06
3.46865e-06
2.18863e-08
3.48678e-06
8.40284e-08
3.49345e-06
8.87978e-08
3.49232e-06
9.23102e-08
3.48432e-06
9.40015e-08
3.47071e-06
9.11348e-08
3.45278e-06
8.58331e-08
3.43174e-06
7.99585e-08
3.40869e-06
7.40954e-08
3.38455e-06
6.84015e-08
3.36004e-06
6.29675e-08
3.33564e-06
5.78421e-08
3.31174e-06
5.3009e-08
3.2886e-06
4.84557e-08
3.26642e-06
4.40134e-08
3.24543e-06
3.98298e-08
3.22637e-06
3.50918e-08
2.88431e-08
3.21021e-06
3.66801e-06
1.63929e-08
3.68031e-06
7.17284e-08
3.69e-06
7.91027e-08
3.70002e-06
8.22907e-08
3.70913e-06
8.4893e-08
3.71622e-06
8.40442e-08
3.72118e-06
8.08702e-08
3.72423e-06
7.69156e-08
3.72559e-06
7.27368e-08
3.72551e-06
6.84756e-08
3.72426e-06
6.42213e-08
3.72206e-06
6.00431e-08
3.71911e-06
5.59553e-08
3.71562e-06
5.19463e-08
3.71172e-06
4.79109e-08
3.70776e-06
4.3787e-08
3.70377e-06
3.90799e-08
3.32213e-08
3.6994e-06
3.92495e-06
1.68285e-08
3.93556e-06
6.11187e-08
3.94312e-06
7.15449e-08
3.95014e-06
7.52679e-08
3.95682e-06
7.82116e-08
3.96261e-06
7.82528e-08
3.96757e-06
7.59098e-08
3.9719e-06
7.25897e-08
3.97568e-06
6.89502e-08
3.97899e-06
6.51729e-08
3.98186e-06
6.13456e-08
3.98437e-06
5.7535e-08
3.98657e-06
5.3759e-08
3.98851e-06
4.99983e-08
3.99026e-06
4.61633e-08
3.9919e-06
4.2148e-08
3.99328e-06
3.77005e-08
3.252e-08
3.99398e-06
4.20772e-06
1.62322e-08
4.21609e-06
5.27536e-08
4.22226e-06
6.53747e-08
4.22774e-06
6.97841e-08
4.23318e-06
7.27695e-08
4.23821e-06
7.3226e-08
4.24274e-06
7.13844e-08
4.24686e-06
6.84681e-08
4.25065e-06
6.51612e-08
4.25415e-06
6.16715e-08
4.2574e-06
5.80893e-08
4.26046e-06
5.44812e-08
4.26335e-06
5.08699e-08
4.26611e-06
4.72374e-08
4.26876e-06
4.3513e-08
4.2713e-06
3.9608e-08
4.27361e-06
3.53836e-08
3.07077e-08
4.27542e-06
4.51042e-06
1.48966e-08
4.51713e-06
4.60498e-08
4.52283e-06
5.96678e-08
4.52796e-06
6.46522e-08
4.5331e-06
6.76334e-08
4.53796e-06
6.83692e-08
4.54238e-06
6.69577e-08
4.54643e-06
6.44178e-08
4.55018e-06
6.14115e-08
4.55369e-06
5.81687e-08
4.55698e-06
5.47901e-08
4.56012e-06
5.13458e-08
4.56312e-06
4.78666e-08
4.56602e-06
4.43417e-08
4.56881e-06
4.07231e-08
4.57147e-06
3.69491e-08
4.5739e-06
3.29493e-08
2.86928e-08
4.57591e-06
4.83415e-06
1.34688e-08
4.83991e-06
4.02896e-08
4.84554e-06
5.40323e-08
4.85066e-06
5.95352e-08
4.85572e-06
6.2574e-08
4.86055e-06
6.35419e-08
4.86499e-06
6.2514e-08
4.86908e-06
6.03276e-08
4.87289e-06
5.7606e-08
4.87646e-06
5.4597e-08
4.87983e-06
5.14132e-08
4.88305e-06
4.81295e-08
4.88613e-06
4.47853e-08
4.88909e-06
4.13802e-08
4.89193e-06
3.78889e-08
4.8946e-06
3.42766e-08
4.89703e-06
3.05212e-08
2.66479e-08
4.89907e-06
5.18096e-06
1.20933e-08
5.18606e-06
3.51907e-08
5.19158e-06
4.85048e-08
5.19671e-06
5.44031e-08
5.20177e-06
5.75172e-08
5.20665e-06
5.86656e-08
5.21119e-06
5.79715e-08
5.2154e-06
5.61151e-08
5.21934e-06
5.36696e-08
5.22304e-06
5.08936e-08
5.22654e-06
4.79097e-08
5.22988e-06
4.47975e-08
5.23306e-06
4.16047e-08
5.23609e-06
3.83433e-08
5.23897e-06
3.50078e-08
5.24166e-06
3.15876e-08
5.24409e-06
2.80908e-08
2.45654e-08
5.24618e-06
5.55268e-06
1.07549e-08
5.55721e-06
3.06606e-08
5.56252e-06
4.319e-08
5.56764e-06
4.92846e-08
5.57271e-06
5.24437e-08
5.57766e-06
5.37139e-08
5.58234e-06
5.32998e-08
5.5867e-06
5.17473e-08
5.5908e-06
4.95689e-08
5.59467e-06
4.70268e-08
5.59833e-06
4.42509e-08
5.6018e-06
4.13251e-08
5.6051e-06
3.83041e-08
5.60823e-06
3.52123e-08
5.61118e-06
3.20606e-08
5.61391e-06
2.88576e-08
5.61637e-06
2.56278e-08
2.24286e-08
5.61851e-06
5.95107e-06
9.45959e-09
5.95511e-06
2.66196e-08
5.96017e-06
3.81364e-08
5.96524e-06
4.42112e-08
5.97032e-06
4.73656e-08
5.97533e-06
4.87029e-08
5.98012e-06
4.85106e-08
5.98464e-06
4.72281e-08
5.9889e-06
4.53018e-08
5.99294e-06
4.299e-08
5.99676e-06
4.04277e-08
6.00039e-06
3.77015e-08
6.00382e-06
3.48717e-08
6.00706e-06
3.19733e-08
6.01009e-06
2.90297e-08
6.01288e-06
2.60629e-08
6.0154e-06
2.31053e-08
2.02158e-08
6.01762e-06
6.37804e-06
8.22798e-09
6.38168e-06
2.29861e-08
6.38646e-06
3.33551e-08
6.39146e-06
3.92112e-08
6.39652e-06
4.23021e-08
6.40157e-06
4.36584e-08
6.40645e-06
4.3629e-08
6.4111e-06
4.25771e-08
6.41552e-06
4.08833e-08
6.41971e-06
3.87944e-08
6.42369e-06
3.64474e-08
6.42746e-06
3.39308e-08
6.43103e-06
3.13081e-08
6.43438e-06
2.86223e-08
6.4375e-06
2.59054e-08
6.44038e-06
2.31877e-08
6.44298e-06
2.0504e-08
1.79105e-08
6.44528e-06
5.74182e-06
7.23864e-09
5.74462e-06
2.01847e-08
5.74846e-06
2.95235e-08
5.75261e-06
3.50564e-08
5.75687e-06
3.8044e-08
5.76114e-06
3.93847e-08
5.76532e-06
3.94495e-08
5.76934e-06
3.85602e-08
5.77317e-06
3.70468e-08
5.77683e-06
3.51396e-08
5.7803e-06
3.29744e-08
5.78359e-06
3.06401e-08
5.7867e-06
2.82019e-08
5.78961e-06
2.57069e-08
5.79233e-06
2.31918e-08
5.79482e-06
2.06906e-08
5.79709e-06
1.82373e-08
1.58859e-08
5.79912e-06
6.99922e-06
6.17745e-09
7.00219e-06
1.72087e-08
7.00635e-06
2.53638e-08
7.01099e-06
3.04134e-08
7.01583e-06
3.32075e-08
7.02073e-06
3.44851e-08
7.02557e-06
3.46146e-08
7.03025e-06
3.38771e-08
7.03474e-06
3.25502e-08
7.03904e-06
3.08421e-08
7.04313e-06
2.88837e-08
7.04701e-06
2.67626e-08
7.05067e-06
2.4544e-08
7.0541e-06
2.22773e-08
7.05729e-06
2.00015e-08
7.06023e-06
1.77521e-08
7.0629e-06
1.55606e-08
1.34768e-08
7.06531e-06
8.53197e-06
5.05343e-09
8.53509e-06
1.40859e-08
8.53955e-06
2.09061e-08
8.54467e-06
2.52927e-08
8.5501e-06
2.77767e-08
8.55566e-06
2.89245e-08
8.5612e-06
2.90737e-08
8.56662e-06
2.84649e-08
8.57184e-06
2.73232e-08
8.57686e-06
2.58284e-08
8.58164e-06
2.41018e-08
8.58617e-06
2.22266e-08
8.59045e-06
2.02653e-08
8.59446e-06
1.82665e-08
8.59819e-06
1.62693e-08
8.60164e-06
1.43078e-08
8.60479e-06
1.24095e-08
1.06184e-08
8.60765e-06
1.04004e-05
3.8779e-09
1.04036e-05
1.08376e-08
1.04084e-05
1.61756e-08
1.0414e-05
1.97082e-08
1.042e-05
2.17414e-08
1.04262e-05
2.2672e-08
1.04325e-05
2.27796e-08
1.04387e-05
2.22624e-08
1.04448e-05
2.12949e-08
1.04506e-05
2.00224e-08
1.04561e-05
1.85504e-08
1.04614e-05
1.69531e-08
1.04664e-05
1.5287e-08
1.0471e-05
1.35966e-08
1.04754e-05
1.19176e-08
1.04794e-05
1.028e-08
1.04831e-05
8.7063e-09
7.23389e-09
1.04865e-05
1.2678e-05
2.65842e-09
1.26814e-05
7.46185e-09
1.26864e-05
1.11743e-08
1.26924e-05
1.36608e-08
1.26991e-05
1.50818e-08
1.27061e-05
1.5686e-08
1.27132e-05
1.56761e-08
1.27202e-05
1.52005e-08
1.27272e-05
1.43851e-08
1.27338e-05
1.33369e-08
1.27403e-05
1.21378e-08
1.27464e-05
1.0848e-08
1.27521e-05
9.51338e-09
1.27576e-05
8.17033e-09
1.27626e-05
6.84777e-09
1.27673e-05
5.56967e-09
1.27717e-05
4.35226e-09
3.22594e-09
1.27757e-05
1.54545e-05
1.3866e-09
1.5458e-05
3.91566e-09
1.54633e-05
5.84721e-09
1.54699e-05
7.09445e-09
1.54772e-05
7.72935e-09
1.5485e-05
7.88075e-09
1.54931e-05
7.66522e-09
1.55011e-05
7.17291e-09
1.5509e-05
6.47986e-09
1.55167e-05
5.65143e-09
1.55241e-05
4.73967e-09
1.55311e-05
3.78407e-09
1.55378e-05
2.81505e-09
1.55441e-05
1.85678e-09
1.55501e-05
9.28452e-10
1.55556e-05
4.5641e-11
1.55607e-05
-7.82233e-10
-1.5324e-09
1.55655e-05
1.8839e-05
2.32464e-11
1.88428e-05
7.4704e-11
1.88487e-05
1.76357e-11
1.8856e-05
-1.87138e-10
1.88642e-05
-5.21518e-10
1.8873e-05
-9.56573e-10
1.88822e-05
-1.468e-09
1.88914e-05
-2.03361e-09
1.89005e-05
-2.63111e-09
1.89094e-05
-3.24088e-09
1.8918e-05
-3.84746e-09
1.89262e-05
-4.43861e-09
1.8934e-05
-5.0043e-09
1.89414e-05
-5.53625e-09
1.89484e-05
-6.02788e-09
1.89549e-05
-6.47369e-09
1.8961e-05
-6.87179e-09
-7.20757e-09
1.89666e-05
2.29649e-05
-1.5328e-09
2.29693e-05
-4.35521e-09
2.29761e-05
-6.74989e-09
2.29846e-05
-8.68828e-09
2.29943e-05
-1.01873e-08
2.30046e-05
-1.13334e-08
2.30154e-05
-1.22159e-08
2.30262e-05
-1.28891e-08
2.3037e-05
-1.33899e-08
2.30475e-05
-1.37535e-08
2.30577e-05
-1.40105e-08
2.30674e-05
-1.41829e-08
2.30767e-05
-1.42861e-08
2.30855e-05
-1.4331e-08
2.30938e-05
-1.43263e-08
2.31016e-05
-1.42779e-08
2.31089e-05
-1.41922e-08
-1.4063e-08
2.31158e-05
1.68119e-05
-2.73636e-09
1.68153e-05
-7.76163e-09
1.68205e-05
-1.19697e-08
1.68271e-05
-1.52072e-08
1.68344e-05
-1.75179e-08
1.68422e-05
-1.91353e-08
1.68502e-05
-2.0253e-08
1.68583e-05
-2.09712e-08
1.68663e-05
-2.13674e-08
1.6874e-05
-2.15215e-08
1.68815e-05
-2.14992e-08
1.68887e-05
-2.1347e-08
1.68955e-05
-2.10981e-08
1.6902e-05
-2.07779e-08
1.6908e-05
-2.04054e-08
1.69138e-05
-1.99943e-08
1.69191e-05
-1.95554e-08
-1.90881e-08
1.69241e-05
1.46357e-05
-3.87059e-09
1.4639e-05
-1.10266e-08
1.4644e-05
-1.70146e-08
1.46502e-05
-2.1411e-08
1.46571e-05
-2.43601e-08
1.46643e-05
-2.63351e-08
1.46716e-05
-2.76114e-08
1.4679e-05
-2.83082e-08
1.46861e-05
-2.85526e-08
1.46931e-05
-2.84755e-08
1.46998e-05
-2.81727e-08
1.47061e-05
-2.77076e-08
1.47122e-05
-2.71282e-08
1.47178e-05
-2.64719e-08
1.47232e-05
-2.57664e-08
1.47282e-05
-2.50312e-08
1.4733e-05
-2.4281e-08
-2.35188e-08
1.47374e-05
1.27412e-05
-4.8959e-09
1.27444e-05
-1.42725e-08
1.27495e-05
-2.21367e-08
1.27556e-05
-2.74647e-08
1.2762e-05
-3.08308e-08
1.27688e-05
-3.30809e-08
1.27756e-05
-3.44603e-08
1.27824e-05
-3.5069e-08
1.2789e-05
-3.51083e-08
1.27953e-05
-3.47697e-08
1.28013e-05
-3.41721e-08
1.28069e-05
-3.33923e-08
1.28123e-05
-3.2491e-08
1.28173e-05
-3.1516e-08
1.28221e-05
-3.0501e-08
1.28265e-05
-2.94685e-08
1.28307e-05
-2.84336e-08
-2.74001e-08
1.28345e-05
1.10917e-05
-5.6786e-09
1.1095e-05
-1.75426e-08
1.11004e-05
-2.75432e-08
1.11064e-05
-3.34571e-08
1.11125e-05
-3.6988e-08
1.11189e-05
-3.94269e-08
1.11253e-05
-4.08328e-08
1.11315e-05
-4.12906e-08
1.11375e-05
-4.10968e-08
1.11432e-05
-4.04878e-08
1.11486e-05
-3.95927e-08
1.11537e-05
-3.85007e-08
1.11585e-05
-3.72867e-08
1.1163e-05
-3.60084e-08
1.11672e-05
-3.47042e-08
1.11711e-05
-3.34e-08
1.11748e-05
-3.21142e-08
-3.08548e-08
1.11783e-05
9.65564e-06
-6.10494e-09
9.65905e-06
-2.09495e-08
9.66465e-06
-3.31454e-08
9.67045e-06
-3.92575e-08
9.67637e-06
-4.29107e-08
9.68244e-06
-4.54908e-08
9.68839e-06
-4.67868e-08
9.6941e-06
-4.69985e-08
9.69954e-06
-4.65399e-08
9.70471e-06
-4.56585e-08
9.70959e-06
-4.44746e-08
9.71418e-06
-4.30863e-08
9.71847e-06
-4.15803e-08
9.72248e-06
-4.00222e-08
9.72623e-06
-3.84539e-08
9.72974e-06
-3.69021e-08
9.733e-06
-3.53798e-08
-3.38808e-08
9.73603e-06
8.40494e-06
-5.69724e-09
8.40933e-06
-2.53307e-08
8.41475e-06
-3.85708e-08
8.41987e-06
-4.43752e-08
8.42545e-06
-4.84907e-08
8.43132e-06
-5.13633e-08
8.43705e-06
-5.25155e-08
8.44249e-06
-5.2437e-08
8.44763e-06
-5.16827e-08
8.45247e-06
-5.05016e-08
8.45701e-06
-4.90101e-08
8.46124e-06
-4.73173e-08
8.46518e-06
-4.55197e-08
8.46884e-06
-4.36885e-08
8.47226e-06
-4.18679e-08
8.47544e-06
-4.0087e-08
8.47843e-06
-3.83701e-08
-3.6727e-08
8.48128e-06
7.31365e-06
-2.06014e-09
7.32071e-06
-3.23948e-08
7.32652e-06
-4.43787e-08
7.33133e-06
-4.91903e-08
7.33672e-06
-5.38777e-08
7.34239e-06
-5.70329e-08
7.34793e-06
-5.80584e-08
7.35325e-06
-5.77562e-08
7.35832e-06
-5.6753e-08
7.3631e-06
-5.52812e-08
7.36757e-06
-5.34744e-08
7.37171e-06
-5.14631e-08
7.37555e-06
-4.93601e-08
7.3791e-06
-4.72411e-08
7.38239e-06
-4.51559e-08
7.38544e-06
-4.31343e-08
7.38826e-06
-4.11871e-08
-3.92632e-08
7.39079e-06
6.36047e-06
7.53665e-09
6.3703e-06
-4.22262e-08
6.37819e-06
-5.22681e-08
6.38526e-06
-5.62597e-08
6.39239e-06
-6.10057e-08
6.39901e-06
-6.36539e-08
6.405e-06
-6.40546e-08
6.41056e-06
-6.3312e-08
6.41577e-06
-6.19612e-08
6.42062e-06
-6.01372e-08
6.42511e-06
-5.79657e-08
6.42924e-06
-5.55882e-08
6.43301e-06
-5.31332e-08
6.43645e-06
-5.06774e-08
6.43957e-06
-4.82788e-08
6.44241e-06
-4.59786e-08
6.44504e-06
-4.38081e-08
-4.17946e-08
6.44757e-06
5.53917e-06
1.38306e-08
5.54752e-06
-5.05791e-08
5.55587e-06
-6.06149e-08
5.56613e-06
-6.65175e-08
5.57733e-06
-7.22108e-08
5.58783e-06
-7.4155e-08
5.59705e-06
-7.32773e-08
5.60502e-06
-7.12762e-08
5.61179e-06
-6.87369e-08
5.61746e-06
-6.57998e-08
5.62208e-06
-6.25883e-08
5.62575e-06
-5.92575e-08
5.62856e-06
-5.59428e-08
5.6306e-06
-5.27186e-08
5.63196e-06
-4.96366e-08
5.63274e-06
-4.67659e-08
5.63305e-06
-4.41165e-08
-4.17812e-08
5.63304e-06
4.87157e-06
-3.01344e-08
4.88648e-06
-6.54849e-08
4.89722e-06
-7.13578e-08
4.906e-06
-7.52956e-08
4.91305e-06
-7.92591e-08
4.91733e-06
-7.84384e-08
4.91816e-06
-7.41139e-08
4.91544e-06
-6.85475e-08
4.90945e-06
-6.2756e-08
4.90074e-06
-5.70806e-08
4.88984e-06
-5.16918e-08
4.87727e-06
-4.66891e-08
4.86348e-06
-4.21541e-08
4.84884e-06
-3.80789e-08
4.83365e-06
-3.44496e-08
4.81818e-06
-3.12898e-08
4.80268e-06
-2.86146e-08
-2.69194e-08
4.78781e-06
4.17254e-06
4.10706e-06
4.0357e-06
3.9604e-06
3.88114e-06
3.80271e-06
3.72859e-06
3.66004e-06
3.59729e-06
3.54021e-06
3.48852e-06
3.44183e-06
3.39967e-06
3.36159e-06
3.32714e-06
3.29585e-06
3.26724e-06
3.24032e-06
7.50593e-09
-7.51137e-09
2.09358e-08
-1.34383e-08
3.54588e-08
-1.45303e-08
4.86693e-08
-1.32171e-08
5.9313e-08
-1.065e-08
6.68617e-08
-7.55481e-09
7.12259e-08
-4.3702e-09
7.25618e-08
-1.34211e-09
7.12003e-08
1.35519e-09
6.76078e-08
3.586e-09
6.22762e-08
5.32484e-09
5.56162e-08
6.65291e-09
4.79131e-08
7.69596e-09
3.93214e-08
8.58432e-09
2.98891e-08
9.42487e-09
1.95896e-08
1.02917e-08
8.37046e-09
1.12114e-08
-3.85915e-09
1.22214e-08
-1.73021e-08
1.34351e-08
-3.2147e-08
1.48366e-08
-4.85183e-08
1.63638e-08
-6.65629e-08
1.80356e-08
-8.64204e-08
1.98497e-08
-1.08221e-07
2.17913e-08
-1.32066e-07
2.38364e-08
-1.58028e-07
2.59529e-08
-1.86132e-07
2.80965e-08
-2.16364e-07
3.02226e-08
-2.48661e-07
3.22902e-08
-2.82932e-07
3.42625e-08
-3.19045e-07
3.61083e-08
-3.56856e-07
3.78029e-08
-3.96189e-07
3.93289e-08
-4.36867e-07
4.06728e-08
-4.78695e-07
4.18248e-08
-5.21482e-07
4.2783e-08
-5.65038e-07
4.35537e-08
-6.09191e-07
4.41482e-08
-6.53773e-07
4.45807e-08
-6.98645e-07
4.48676e-08
-7.43673e-07
4.50261e-08
-7.8875e-07
4.50736e-08
-8.33779e-07
4.50268e-08
-8.78685e-07
4.4903e-08
-9.23409e-07
4.47227e-08
-9.67925e-07
4.45136e-08
-1.01224e-06
4.43112e-08
-1.05637e-06
4.41255e-08
-1.10031e-06
4.39459e-08
-1.14409e-06
4.37723e-08
-1.18769e-06
4.36016e-08
-1.23113e-06
4.34328e-08
-1.2744e-06
4.32644e-08
-1.3175e-06
4.30951e-08
-1.36042e-06
4.2923e-08
-1.40317e-06
4.27462e-08
-1.44574e-06
4.25627e-08
-1.48812e-06
4.23701e-08
-1.53029e-06
4.21661e-08
-1.57224e-06
4.19478e-08
-1.61395e-06
4.17129e-08
-1.65542e-06
4.14587e-08
-1.6966e-06
4.11827e-08
-1.73749e-06
4.08822e-08
-1.77804e-06
4.05549e-08
-1.81825e-06
4.01981e-08
-1.85806e-06
3.98097e-08
-1.89745e-06
3.93875e-08
-1.93638e-06
3.89297e-08
-1.97481e-06
3.8434e-08
-2.01271e-06
3.78993e-08
-2.05004e-06
3.73236e-08
-2.08675e-06
3.67058e-08
-2.12279e-06
3.60446e-08
-2.15813e-06
3.53389e-08
-2.19273e-06
3.45879e-08
-2.22652e-06
3.3791e-08
-2.25947e-06
3.29476e-08
-2.29153e-06
3.20575e-08
-2.32265e-06
3.11201e-08
-2.35279e-06
3.01355e-08
-2.3819e-06
2.91036e-08
-2.40992e-06
2.80248e-08
-2.43682e-06
2.6899e-08
-2.46255e-06
2.57267e-08
-2.48706e-06
2.45077e-08
-2.5103e-06
2.32428e-08
-2.53223e-06
2.19321e-08
-2.5528e-06
2.05762e-08
-2.57197e-06
1.9175e-08
-2.5897e-06
1.77277e-08
-2.60593e-06
1.62331e-08
-2.62062e-06
1.46889e-08
-2.63371e-06
1.30916e-08
-2.64515e-06
1.14355e-08
-2.65486e-06
9.71347e-09
-2.66278e-06
7.91573e-09
-2.66881e-06
6.02801e-09
-2.67285e-06
4.03307e-09
-2.67479e-06
1.93547e-09
-2.67462e-06
-1.68665e-10
-2.67255e-06
-2.07549e-09
-2.66876e-06
-3.79464e-09
-2.66329e-06
-5.47756e-09
-2.65615e-06
-7.15149e-09
-2.64732e-06
-8.82904e-09
-2.63681e-06
-1.05108e-08
-2.62462e-06
-1.21959e-08
-2.61074e-06
-1.38821e-08
-2.59517e-06
-1.55669e-08
-2.57792e-06
-1.72475e-08
-2.559e-06
-1.89213e-08
-2.53841e-06
-2.05851e-08
-2.51617e-06
-2.22362e-08
-2.4923e-06
-2.38718e-08
-2.46681e-06
-2.54892e-08
-2.43972e-06
-2.70854e-08
-2.41105e-06
-2.86575e-08
-2.38085e-06
-3.02025e-08
-2.34912e-06
-3.17178e-08
-2.31592e-06
-3.3201e-08
-2.28126e-06
-3.46496e-08
-2.2452e-06
-3.60611e-08
-2.20776e-06
-3.74327e-08
-2.169e-06
-3.87623e-08
-2.12895e-06
-4.00475e-08
-2.08766e-06
-4.12869e-08
-2.04518e-06
-4.24786e-08
-2.00156e-06
-4.36221e-08
-1.95685e-06
-4.47172e-08
-1.91108e-06
-4.57636e-08
-1.86432e-06
-4.67643e-08
-1.8166e-06
-4.77208e-08
-1.76798e-06
-4.86232e-08
-1.71852e-06
-4.94649e-08
-1.66826e-06
-5.02549e-08
-1.61726e-06
-5.09967e-08
-1.56556e-06
-5.1689e-08
-1.51321e-06
-5.23298e-08
-1.46027e-06
-5.29218e-08
-1.40677e-06
-5.34671e-08
-1.35277e-06
-5.39683e-08
-1.29831e-06
-5.44276e-08
-1.24343e-06
-5.48465e-08
-1.18816e-06
-5.52268e-08
-1.13255e-06
-5.55707e-08
-1.07663e-06
-5.58804e-08
-1.02043e-06
-5.61584e-08
-9.63974e-07
-5.64069e-08
-9.07297e-07
-5.66284e-08
-8.50423e-07
-5.68252e-08
-7.93371e-07
-5.69999e-08
-7.36164e-07
-5.71547e-08
-6.78816e-07
-5.72923e-08
-6.21346e-07
-5.74149e-08
-5.63763e-07
-5.75243e-08
-5.06083e-07
-5.76227e-08
-4.48311e-07
-5.77117e-08
-3.90459e-07
-5.77925e-08
-3.32531e-07
-5.78677e-08
-2.74535e-07
-5.79354e-08
-2.16476e-07
-5.79982e-08
-1.5836e-07
-5.80563e-08
-1.00213e-07
-5.80869e-08
-4.21262e-08
-5.80285e-08
1.5777e-08
-5.78448e-08
7.35525e-08
-5.77218e-08
1.3131e-07
-5.7705e-08
1.89055e-07
-5.76986e-08
2.46834e-07
-5.77334e-08
3.04662e-07
-5.77878e-08
3.62528e-07
-5.78281e-08
4.20366e-07
-5.78055e-08
4.78034e-07
-5.7638e-08
5.35242e-07
-5.71847e-08
5.91411e-07
-5.61493e-08
6.45318e-07
-5.38928e-08
6.93986e-07
-4.86566e-08
7.30392e-07
-3.63974e-08
7.46795e-09
7.22935e-07
1.22876e-08
-1.98045e-08
2.35864e-08
-2.47443e-08
3.09058e-08
-2.18545e-08
3.48046e-08
-1.71199e-08
3.59952e-08
-1.18441e-08
3.49148e-08
-6.47778e-09
3.18271e-08
-1.28567e-09
2.69186e-08
3.56305e-09
2.03048e-08
7.96568e-09
1.20136e-08
1.18737e-08
2.03927e-09
1.52957e-08
-9.61467e-09
1.83032e-08
-2.29353e-08
2.10132e-08
-3.79137e-08
2.35592e-08
-5.456e-08
2.6068e-08
-7.29122e-08
2.86408e-08
-9.30488e-08
3.13451e-08
-1.15051e-07
3.4221e-08
-1.38913e-07
3.72944e-08
-1.64652e-07
4.05719e-08
-1.92332e-07
4.40407e-08
-2.21973e-07
4.76734e-08
-2.53552e-07
5.14254e-08
-2.87003e-07
5.52387e-08
-3.22218e-07
5.90481e-08
-3.59059e-07
6.27894e-08
-3.97367e-07
6.64016e-08
-4.36973e-07
6.98244e-08
-4.77691e-07
7.30049e-08
-5.19333e-07
7.59002e-08
-5.61706e-07
7.84789e-08
-6.04629e-07
8.07222e-08
-6.47926e-07
8.2624e-08
-6.91443e-07
8.41866e-08
-7.35039e-07
8.54192e-08
-7.78601e-07
8.63424e-08
-8.22033e-07
8.69838e-08
-8.65262e-07
8.7375e-08
-9.08232e-07
8.75488e-08
-9.50905e-07
8.75385e-08
-9.93256e-07
8.73761e-08
-1.03528e-06
8.70917e-08
-1.07696e-06
8.67134e-08
-1.11833e-06
8.62679e-08
-1.15939e-06
8.57817e-08
-1.20016e-06
8.52798e-08
-1.24063e-06
8.47813e-08
-1.2808e-06
8.4293e-08
-1.32067e-06
8.38142e-08
-1.36024e-06
8.33444e-08
-1.39952e-06
8.28817e-08
-1.43852e-06
8.24237e-08
-1.47722e-06
8.1967e-08
-1.51564e-06
8.15082e-08
-1.55376e-06
8.10431e-08
-1.59158e-06
8.05676e-08
-1.6291e-06
8.0077e-08
-1.6663e-06
7.95667e-08
-1.70317e-06
7.90317e-08
-1.73969e-06
7.84674e-08
-1.77585e-06
7.78689e-08
-1.81162e-06
7.72313e-08
-1.84699e-06
7.65502e-08
-1.88193e-06
7.5821e-08
-1.91642e-06
7.50394e-08
-1.95042e-06
7.42015e-08
-1.98392e-06
7.33033e-08
-2.01688e-06
7.23413e-08
-2.04926e-06
7.13124e-08
-2.08104e-06
7.02134e-08
-2.11218e-06
6.90416e-08
-2.14266e-06
6.77948e-08
-2.17242e-06
6.64706e-08
-2.20144e-06
6.50671e-08
-2.22969e-06
6.3583e-08
-2.25712e-06
6.20167e-08
-2.2837e-06
6.03675e-08
-2.30939e-06
5.86344e-08
-2.33415e-06
5.68172e-08
-2.35795e-06
5.49153e-08
-2.38074e-06
5.2929e-08
-2.4025e-06
5.08582e-08
-2.42317e-06
4.87034e-08
-2.44274e-06
4.6465e-08
-2.46116e-06
4.41439e-08
-2.47839e-06
4.17405e-08
-2.49441e-06
3.92561e-08
-2.50916e-06
3.66917e-08
-2.52263e-06
3.40484e-08
-2.53478e-06
3.13269e-08
-2.54558e-06
2.85277e-08
-2.555e-06
2.56511e-08
-2.56301e-06
2.26978e-08
-2.56959e-06
1.96681e-08
-2.57471e-06
1.65629e-08
-2.57839e-06
1.33841e-08
-2.58061e-06
1.01358e-08
-2.58141e-06
6.82682e-09
-2.58086e-06
3.4776e-09
-2.57905e-06
1.31e-10
-2.57606e-06
-3.166e-09
-2.57171e-06
-6.43065e-09
-2.5658e-06
-9.70645e-09
-2.55828e-06
-1.29977e-08
-2.54914e-06
-1.6303e-08
-2.53835e-06
-1.96226e-08
-2.52591e-06
-2.29534e-08
-2.51181e-06
-2.62913e-08
-2.49606e-06
-2.96314e-08
-2.47866e-06
-3.29685e-08
-2.45961e-06
-3.62971e-08
-2.43892e-06
-3.96116e-08
-2.4166e-06
-4.29061e-08
-2.39266e-06
-4.61752e-08
-2.36711e-06
-4.94131e-08
-2.33999e-06
-5.26142e-08
-2.3113e-06
-5.57729e-08
-2.28107e-06
-5.88834e-08
-2.24933e-06
-6.194e-08
-2.2161e-06
-6.49375e-08
-2.18143e-06
-6.78711e-08
-2.14534e-06
-7.07356e-08
-2.10787e-06
-7.35262e-08
-2.06907e-06
-7.62378e-08
-2.02896e-06
-7.88662e-08
-1.9876e-06
-8.14071e-08
-1.94503e-06
-8.3857e-08
-1.90129e-06
-8.62128e-08
-1.85644e-06
-8.84726e-08
-1.81053e-06
-9.06356e-08
-1.76359e-06
-9.27031e-08
-1.71568e-06
-9.46786e-08
-1.66683e-06
-9.65634e-08
-1.61711e-06
-9.8344e-08
-1.56657e-06
-1.00011e-07
-1.51525e-06
-1.01576e-07
-1.46319e-06
-1.03045e-07
-1.41046e-06
-1.04415e-07
-1.35709e-06
-1.05687e-07
-1.30314e-06
-1.06862e-07
-1.24864e-06
-1.07947e-07
-1.19365e-06
-1.08945e-07
-1.13819e-06
-1.09861e-07
-1.08232e-06
-1.10698e-07
-1.02607e-06
-1.11461e-07
-9.69461e-07
-1.12153e-07
-9.12539e-07
-1.12779e-07
-8.55329e-07
-1.13343e-07
-7.97859e-07
-1.13852e-07
-7.40154e-07
-1.14307e-07
-6.82235e-07
-1.14717e-07
-6.24123e-07
-1.15083e-07
-5.65836e-07
-1.15413e-07
-5.07388e-07
-1.1571e-07
-4.48794e-07
-1.15979e-07
-3.90064e-07
-1.16223e-07
-3.31208e-07
-1.16448e-07
-2.72233e-07
-1.16655e-07
-2.13146e-07
-1.16848e-07
-1.53951e-07
-1.1703e-07
-9.46546e-08
-1.17201e-07
-3.52712e-08
-1.1735e-07
2.41792e-08
-1.17477e-07
8.37024e-08
-1.1758e-07
1.43343e-07
-1.17642e-07
2.03164e-07
-1.17638e-07
2.63096e-07
-1.17628e-07
3.23077e-07
-1.17661e-07
3.83134e-07
-1.17732e-07
4.43269e-07
-1.17845e-07
5.03467e-07
-1.17965e-07
5.63689e-07
-1.18032e-07
6.23849e-07
-1.17948e-07
6.83784e-07
-1.17558e-07
7.43191e-07
-1.1658e-07
8.01534e-07
-1.14483e-07
8.57741e-07
-1.10093e-07
9.10162e-07
-1.01073e-07
9.54843e-07
-8.10761e-08
-3.09426e-08
9.93258e-07
8.46544e-09
-2.82743e-08
1.22644e-08
-2.85486e-08
1.22118e-08
-2.18052e-08
9.46994e-09
-1.43807e-08
4.71042e-09
-7.08681e-09
-1.70139e-09
-6.8216e-11
-9.59146e-09
6.60237e-09
-1.88981e-08
1.28675e-08
-2.96304e-08
1.8696e-08
-4.18448e-08
2.4086e-08
-5.5621e-08
2.90698e-08
-7.10373e-08
3.37174e-08
-8.81544e-08
3.81284e-08
-1.07013e-07
4.24157e-08
-1.27634e-07
4.66869e-08
-1.50024e-07
5.10294e-08
-1.74182e-07
5.55012e-08
-2.00092e-07
6.01294e-08
-2.27714e-07
6.49144e-08
-2.56978e-07
6.98345e-08
-2.87789e-07
7.48497e-08
-3.20021e-07
7.99041e-08
-3.53528e-07
8.49305e-08
-3.88147e-07
8.98558e-08
-4.23708e-07
9.46072e-08
-4.60038e-07
9.91169e-08
-4.96964e-07
1.03325e-07
-5.34324e-07
1.07182e-07
-5.71971e-07
1.10651e-07
-6.09779e-07
1.13706e-07
-6.47638e-07
1.16335e-07
-6.85456e-07
1.18538e-07
-7.23155e-07
1.20322e-07
-7.6068e-07
1.2171e-07
-7.98002e-07
1.2274e-07
-8.35108e-07
1.23446e-07
-8.71991e-07
1.23866e-07
-9.08656e-07
1.24038e-07
-9.45108e-07
1.24e-07
-9.8136e-07
1.23788e-07
-1.01742e-06
1.23438e-07
-1.05331e-06
1.22979e-07
-1.08904e-06
1.2244e-07
-1.12462e-06
1.21846e-07
-1.16006e-06
1.21219e-07
-1.19535e-06
1.20577e-07
-1.2305e-06
1.19932e-07
-1.2655e-06
1.19291e-07
-1.30034e-06
1.18655e-07
-1.33502e-06
1.18024e-07
-1.36954e-06
1.17396e-07
-1.40389e-06
1.16769e-07
-1.43806e-06
1.16137e-07
-1.47205e-06
1.15496e-07
-1.50584e-06
1.14839e-07
-1.53944e-06
1.14162e-07
-1.57282e-06
1.13458e-07
-1.60598e-06
1.12721e-07
-1.63889e-06
1.11943e-07
-1.67154e-06
1.11118e-07
-1.70392e-06
1.10241e-07
-1.73599e-06
1.09303e-07
-1.76774e-06
1.083e-07
-1.79915e-06
1.07225e-07
-1.83018e-06
1.06072e-07
-1.86082e-06
1.04836e-07
-1.89103e-06
1.03512e-07
-1.92078e-06
1.02094e-07
-1.95005e-06
1.00579e-07
-1.9788e-06
9.89621e-08
-2.007e-06
9.72396e-08
-2.03461e-06
9.54083e-08
-2.06161e-06
9.34652e-08
-2.08795e-06
9.14077e-08
-2.1136e-06
8.92335e-08
-2.13853e-06
8.6941e-08
-2.16269e-06
8.45287e-08
-2.18605e-06
8.19956e-08
-2.20857e-06
7.93409e-08
-2.23022e-06
7.65643e-08
-2.25096e-06
7.36658e-08
-2.27075e-06
7.06456e-08
-2.28955e-06
6.75044e-08
-2.30733e-06
6.4243e-08
-2.32405e-06
6.08626e-08
-2.33967e-06
5.73646e-08
-2.35417e-06
5.37507e-08
-2.3675e-06
5.0023e-08
-2.37963e-06
4.61836e-08
-2.39054e-06
4.22349e-08
-2.40019e-06
3.8179e-08
-2.40856e-06
3.40189e-08
-2.41562e-06
2.97578e-08
-2.42135e-06
2.54002e-08
-2.42574e-06
2.09517e-08
-2.42878e-06
1.642e-08
-2.43046e-06
1.18153e-08
-2.43079e-06
7.15193e-09
-2.42976e-06
2.44955e-09
-2.42736e-06
-2.26901e-09
-2.42353e-06
-6.99595e-09
-2.41821e-06
-1.17538e-08
-2.41136e-06
-1.65594e-08
-2.40296e-06
-2.14058e-08
-2.39298e-06
-2.62854e-08
-2.38141e-06
-3.11911e-08
-2.36825e-06
-3.61159e-08
-2.35349e-06
-4.10523e-08
-2.33713e-06
-4.59924e-08
-2.31917e-06
-5.09281e-08
-2.29962e-06
-5.58513e-08
-2.27847e-06
-6.07536e-08
-2.25575e-06
-6.56264e-08
-2.23146e-06
-7.04613e-08
-2.20563e-06
-7.525e-08
-2.17825e-06
-7.99839e-08
-2.14937e-06
-8.46547e-08
-2.119e-06
-8.9254e-08
-2.08716e-06
-9.37736e-08
-2.05389e-06
-9.82057e-08
-2.01922e-06
-1.02543e-07
-1.98317e-06
-1.06778e-07
-1.9458e-06
-1.10903e-07
-1.90712e-06
-1.14911e-07
-1.86719e-06
-1.18797e-07
-1.82604e-06
-1.22554e-07
-1.78372e-06
-1.26176e-07
-1.74027e-06
-1.2966e-07
-1.69575e-06
-1.33001e-07
-1.65018e-06
-1.362e-07
-1.60363e-06
-1.39256e-07
-1.55614e-06
-1.42175e-07
-1.50774e-06
-1.44957e-07
-1.4585e-06
-1.47589e-07
-1.40845e-06
-1.5006e-07
-1.35764e-06
-1.52381e-07
-1.30613e-06
-1.5456e-07
-1.25395e-06
-1.56592e-07
-1.20114e-06
-1.58481e-07
-1.14777e-06
-1.60231e-07
-1.09386e-06
-1.61847e-07
-1.03945e-06
-1.63337e-07
-9.84598e-07
-1.64706e-07
-9.29325e-07
-1.65961e-07
-8.73668e-07
-1.67107e-07
-8.17659e-07
-1.6815e-07
-7.61329e-07
-1.69098e-07
-7.04705e-07
-1.69956e-07
-6.47811e-07
-1.70733e-07
-5.90672e-07
-1.71435e-07
-5.33308e-07
-1.72069e-07
-4.75737e-07
-1.72642e-07
-4.17976e-07
-1.73162e-07
-3.60039e-07
-1.73635e-07
-3.01938e-07
-1.74067e-07
-2.43683e-07
-1.74465e-07
-1.85284e-07
-1.74835e-07
-1.26746e-07
-1.75181e-07
-6.80752e-08
-1.75507e-07
-9.2803e-09
-1.75814e-07
4.96317e-08
-1.76101e-07
1.08663e-07
-1.76371e-07
1.6782e-07
-1.76624e-07
2.27108e-07
-1.76858e-07
2.86541e-07
-1.77065e-07
3.46149e-07
-1.77238e-07
4.05929e-07
-1.774e-07
4.65851e-07
-1.77575e-07
5.25902e-07
-1.77775e-07
5.8606e-07
-1.77996e-07
6.46294e-07
-1.78193e-07
7.06551e-07
-1.78282e-07
7.66738e-07
-1.78129e-07
8.26694e-07
-1.77508e-07
8.86144e-07
-1.76026e-07
9.44638e-07
-1.72972e-07
1.00146e-06
-1.66916e-07
1.05564e-06
-1.55249e-07
1.10642e-06
-1.31854e-07
-8.31983e-08
1.15869e-06
1.5508e-09
-2.98287e-08
-1.97472e-09
-2.50271e-08
-7.95944e-09
-1.58231e-08
-1.55783e-08
-6.76383e-09
-2.4522e-08
1.85515e-09
-3.46536e-08
1.00616e-08
-4.59323e-08
1.78796e-08
-5.83807e-08
2.53142e-08
-7.20583e-08
3.23721e-08
-8.7047e-08
3.9073e-08
-1.03435e-07
4.54564e-08
-1.21302e-07
5.15829e-08
-1.40704e-07
5.75287e-08
-1.61666e-07
6.3376e-08
-1.8418e-07
6.91995e-08
-2.08208e-07
7.50558e-08
-2.33685e-07
8.09765e-08
-2.60522e-07
8.69656e-08
-2.88611e-07
9.30021e-08
-3.17822e-07
9.90439e-08
-3.48007e-07
1.05034e-07
-3.79011e-07
1.10906e-07
-4.10672e-07
1.16591e-07
-4.42837e-07
1.22019e-07
-4.7536e-07
1.27129e-07
-5.08111e-07
1.31866e-07
-5.40974e-07
1.36187e-07
-5.73856e-07
1.40062e-07
-6.06679e-07
1.43473e-07
-6.3939e-07
1.46415e-07
-6.7195e-07
1.48894e-07
-7.0434e-07
1.50927e-07
-7.36559e-07
1.52539e-07
-7.68617e-07
1.53767e-07
-8.00528e-07
1.54649e-07
-8.32308e-07
1.55225e-07
-8.63976e-07
1.55533e-07
-8.95553e-07
1.55614e-07
-9.27057e-07
1.55503e-07
-9.58505e-07
1.55235e-07
-9.8991e-07
1.54842e-07
-1.02128e-06
1.54351e-07
-1.05263e-06
1.53787e-07
-1.08396e-06
1.53172e-07
-1.11526e-06
1.52522e-07
-1.14654e-06
1.51851e-07
-1.17778e-06
1.5117e-07
-1.20897e-06
1.50483e-07
-1.24011e-06
1.49793e-07
-1.27118e-06
1.49099e-07
-1.30219e-06
1.48399e-07
-1.33311e-06
1.4769e-07
-1.36394e-06
1.46965e-07
-1.39466e-06
1.4622e-07
-1.42527e-06
1.45447e-07
-1.45575e-06
1.4464e-07
-1.48608e-06
1.43791e-07
-1.51626e-06
1.42892e-07
-1.54625e-06
1.41935e-07
-1.57605e-06
1.40912e-07
-1.60562e-06
1.39816e-07
-1.63496e-06
1.38638e-07
-1.66403e-06
1.37371e-07
-1.69282e-06
1.36007e-07
-1.72128e-06
1.3454e-07
-1.74941e-06
1.32962e-07
-1.77717e-06
1.31268e-07
-1.80453e-06
1.2945e-07
-1.83145e-06
1.27504e-07
-1.85791e-06
1.25424e-07
-1.88388e-06
1.23206e-07
-1.90932e-06
1.20846e-07
-1.93419e-06
1.18339e-07
-1.95847e-06
1.15682e-07
-1.98211e-06
1.12874e-07
-2.00508e-06
1.0991e-07
-2.02734e-06
1.0679e-07
-2.04886e-06
1.03513e-07
-2.06959e-06
1.00077e-07
-2.08951e-06
9.64812e-08
-2.10857e-06
9.27268e-08
-2.12674e-06
8.88138e-08
-2.14398e-06
8.4743e-08
-2.16025e-06
8.05159e-08
-2.17553e-06
7.6134e-08
-2.18976e-06
7.15995e-08
-2.20293e-06
6.69149e-08
-2.21499e-06
6.20833e-08
-2.22591e-06
5.7108e-08
-2.23567e-06
5.19927e-08
-2.24423e-06
4.67414e-08
-2.25157e-06
4.1359e-08
-2.25766e-06
3.58511e-08
-2.26249e-06
3.02245e-08
-2.26602e-06
2.44873e-08
-2.26825e-06
1.86492e-08
-2.26916e-06
1.27215e-08
-2.26873e-06
6.71752e-09
-2.26693e-06
6.51292e-10
-2.26374e-06
-5.46578e-09
-2.2591e-06
-1.16331e-08
-2.253e-06
-1.78616e-08
-2.2454e-06
-2.41556e-08
-2.23631e-06
-3.05069e-08
-2.22569e-06
-3.69054e-08
-2.21354e-06
-4.33405e-08
-2.19986e-06
-4.98021e-08
-2.18463e-06
-5.62797e-08