/*--------------------------------*- C++ -*----------------------------------*\
| =========                 |                                                 |
| \\      /  F ield         | OpenFOAM: The Open Source CFD Toolbox           |
|  \\    /   O peration     | Version:  2406                                  |
|   \\  /    A nd           | Website:  www.openfoam.com                      |
|    \\/     M anipulation  |                                                 |
\*---------------------------------------------------------------------------*/
FoamFile
{
    version     2.0;
    format      ascii;
    arch        "LSB;label=32;scalar=64";
    class       volVectorField;
    location    "250";
    object      U;
}
// * * * * * * * * * * * * * * * * * * * * * * * * * * * * * * * * * * * * * //

dimensions      [0 1 -1 0 0 0 0];

internalField   nonuniform List<vector> 
12225
(
(9.84118 -0.956371 0)
(9.59253 -0.887947 0)
(9.31755 -0.59449 0)
(9.0147 -0.370009 0)
(8.72576 -0.225974 0)
(8.4671 -0.137865 0)
(8.23999 -0.0844803 0)
(8.04167 -0.0516234 0)
(7.86969 -0.0312267 0)
(7.72065 -0.0185923 0)
(7.5915 -0.0106504 0)
(7.47916 -0.00571144 0)
(7.38143 -0.00270867 0)
(7.29634 -0.000996156 0)
(7.22221 -0.000111463 0)
(7.16004 -0.000479023 0)
(7.10023 0.00264163 0)
(7.07203 -0.0178039 0)
(10.0722 0.255857 0)
(10.1867 0.418359 0)
(10.2285 0.384146 0)
(10.2296 0.310412 0)
(10.2114 0.24569 0)
(10.1794 0.195445 0)
(10.1334 0.157688 0)
(10.0759 0.129681 0)
(10.0105 0.108834 0)
(9.94085 0.0931028 0)
(9.86923 0.0809305 0)
(9.79741 0.0713202 0)
(9.72646 0.063526 0)
(9.65752 0.0570739 0)
(9.59099 0.0513225 0)
(9.5278 0.0467248 0)
(9.46856 0.0402503 0)
(9.41522 0.0403727 0)
(10.0032 0.0599591 0)
(10.0309 0.0483014 0)
(10.0614 0.0100104 0)
(10.0898 1.05691e-05 0)
(10.1151 0.00817826 0)
(10.1376 0.0194358 0)
(10.1547 0.029027 0)
(10.1657 0.0365133 0)
(10.1714 0.0420746 0)
(10.173 0.0459309 0)
(10.1711 0.0483961 0)
(10.1662 0.0497659 0)
(10.1591 0.0502772 0)
(10.1502 0.0500804 0)
(10.14 0.0492126 0)
(10.1291 0.0476844 0)
(10.1182 0.0452138 0)
(10.1062 0.0404474 0)
(9.99715 0.00991968 0)
(10.009 0.0261008 0)
(10.0342 0.0383128 0)
(10.0554 0.0534019 0)
(10.0721 0.064933 0)
(10.0875 0.0702747 0)
(10.1015 0.0714278 0)
(10.1134 0.0706732 0)
(10.1236 0.0690956 0)
(10.1325 0.0671219 0)
(10.1404 0.0649518 0)
(10.1472 0.062708 0)
(10.1532 0.0604114 0)
(10.1584 0.0580421 0)
(10.1631 0.0554649 0)
(10.1674 0.0525417 0)
(10.1712 0.0487938 0)
(10.1742 0.043115 0)
(9.99907 0.00681206 0)
(10.0082 0.0343104 0)
(10.0279 0.0483634 0)
(10.0436 0.0549074 0)
(10.0558 0.0583755 0)
(10.0678 0.0595575 0)
(10.0793 0.0593273 0)
(10.0897 0.0585851 0)
(10.0991 0.0576922 0)
(10.1077 0.056683 0)
(10.1157 0.0555496 0)
(10.1232 0.0542872 0)
(10.1302 0.0528728 0)
(10.1369 0.0512502 0)
(10.1433 0.0493021 0)
(10.1495 0.0468731 0)
(10.1553 0.0436416 0)
(10.1604 0.0393009 0)
(10.0002 0.00924618 0)
(10.008 0.0334172 0)
(10.0236 0.0440861 0)
(10.0369 0.0484154 0)
(10.0478 0.0518773 0)
(10.0585 0.0542753 0)
(10.069 0.0553075 0)
(10.0785 0.055471 0)
(10.0871 0.0551588 0)
(10.0951 0.0545016 0)
(10.1026 0.0535535 0)
(10.1097 0.0523574 0)
(10.1165 0.0509245 0)
(10.123 0.0492261 0)
(10.1293 0.0471782 0)
(10.1354 0.0446633 0)
(10.1411 0.0415133 0)
(10.1462 0.0376073 0)
(10.0003 0.00912856 0)
(10.007 0.0287655 0)
(10.0201 0.038905 0)
(10.0322 0.0440413 0)
(10.0425 0.0481446 0)
(10.0525 0.0509483 0)
(10.0622 0.0521937 0)
(10.0711 0.0524289 0)
(10.0793 0.0521175 0)
(10.0868 0.0514347 0)
(10.094 0.0504503 0)
(10.1008 0.0492098 0)
(10.1073 0.0477288 0)
(10.1136 0.045982 0)
(10.1196 0.0439068 0)
(10.1253 0.0414177 0)
(10.1306 0.0384258 0)
(10.1353 0.0348934 0)
(10.0004 0.00814768 0)
(10.006 0.0247186 0)
(10.0171 0.0348955 0)
(10.0283 0.0405441 0)
(10.0381 0.0446236 0)
(10.0475 0.0473386 0)
(10.0566 0.0486187 0)
(10.0652 0.0489353 0)
(10.073 0.0487014 0)
(10.0804 0.048084 0)
(10.0873 0.0471514 0)
(10.0939 0.0459461 0)
(10.1002 0.0444866 0)
(10.1062 0.0427561 0)
(10.1119 0.0407143 0)
(10.1173 0.0383083 0)
(10.1223 0.0355014 0)
(10.1267 0.0323109 0)
(10.0004 0.00721277 0)
(10.0052 0.0215257 0)
(10.0146 0.0312806 0)
(10.0248 0.0369632 0)
(10.0341 0.0408627 0)
(10.0429 0.0434924 0)
(10.0516 0.0448572 0)
(10.0598 0.0452996 0)
(10.0675 0.0451678 0)
(10.0746 0.0446275 0)
(10.0814 0.0437522 0)
(10.0878 0.0425868 0)
(10.0939 0.041156 0)
(10.0997 0.0394557 0)
(10.1052 0.0374666 0)
(10.1103 0.0351646 0)
(10.115 0.0325465 0)
(10.1192 0.0296588 0)
(10.0004 0.00637426 0)
(10.0045 0.0187526 0)
(10.0125 0.0277592 0)
(10.0216 0.0333022 0)
(10.0303 0.0370515 0)
(10.0387 0.039606 0)
(10.0469 0.041024 0)
(10.0548 0.0415568 0)
(10.0622 0.0415007 0)
(10.0692 0.0410214 0)
(10.0758 0.0401969 0)
(10.082 0.0390751 0)
(10.088 0.0376855 0)
(10.0936 0.0360364 0)
(10.0988 0.0341253 0)
(10.1038 0.0319504 0)
(10.1082 0.0295278 0)
(10.1123 0.0269168 0)
(10.0004 0.00558486 0)
(10.0039 0.0162559 0)
(10.0107 0.0243973 0)
(10.0189 0.0296925 0)
(10.0269 0.0332713 0)
(10.0348 0.0357086 0)
(10.0426 0.0371179 0)
(10.0501 0.0376958 0)
(10.0573 0.0376899 0)
(10.064 0.0372583 0)
(10.0704 0.0364815 0)
(10.0765 0.0354085 0)
(10.0822 0.0340732 0)
(10.0877 0.0324935 0)
(10.0928 0.0306803 0)
(10.0975 0.0286471 0)
(10.1018 0.0264203 0)
(10.1057 0.0240631 0)
(10.0003 0.00488047 0)
(10.0034 0.014156 0)
(10.0093 0.021473 0)
(10.0167 0.0264458 0)
(10.0242 0.0298238 0)
(10.0316 0.0321165 0)
(10.039 0.0334747 0)
(10.0461 0.0340609 0)
(10.053 0.0340816 0)
(10.0595 0.0336827 0)
(10.0657 0.0329447 0)
(10.0716 0.0319182 0)
(10.0772 0.03064 0)
(10.0825 0.029135 0)
(10.0874 0.0274232 0)
(10.0919 0.0255269 0)
(10.0961 0.0234768 0)
(10.0999 0.0213356 0)
(10.0003 0.0042199 0)
(10.003 0.0122309 0)
(10.0082 0.0187111 0)
(10.0148 0.0232798 0)
(10.0217 0.0264177 0)
(10.0287 0.0285427 0)
(10.0357 0.0298195 0)
(10.0425 0.0303884 0)
(10.0491 0.0304193 0)
(10.0554 0.0300436 0)
(10.0614 0.0293404 0)
(10.0671 0.0283608 0)
(10.0724 0.0271438 0)
(10.0775 0.0257195 0)
(10.0823 0.0241136 0)
(10.0866 0.022354 0)
(10.0907 0.0204721 0)
(10.0943 0.0185294 0)
(10.0003 0.00353172 0)
(10.0026 0.0102241 0)
(10.0071 0.0157479 0)
(10.0129 0.0197741 0)
(10.0193 0.0225775 0)
(10.0258 0.0244705 0)
(10.0323 0.0256132 0)
(10.0387 0.0261264 0)
(10.045 0.026145 0)
(10.051 0.0257816 0)
(10.0567 0.0251109 0)
(10.0622 0.0241839 0)
(10.0674 0.0230402 0)
(10.0722 0.021713 0)
(10.0768 0.0202316 0)
(10.081 0.0186264 0)
(10.0849 0.0169277 0)
(10.0884 0.0151931 0)
(10.0002 0.00281216 0)
(10.0022 0.00813183 0)
(10.006 0.0125937 0)
(10.0112 0.0159366 0)
(10.0169 0.018293 0)
(10.0229 0.0198737 0)
(10.0289 0.0208171 0)
(10.035 0.0212242 0)
(10.0409 0.0211979 0)
(10.0466 0.0208294 0)
(10.0521 0.0201856 0)
(10.0573 0.0193147 0)
(10.0622 0.0182553 0)
(10.0669 0.0170404 0)
(10.0712 0.0157004 0)
(10.0752 0.0142652 0)
(10.0789 0.0127619 0)
(10.0824 0.011242 0)
(10.0002 0.00206153 0)
(10.0019 0.00595693 0)
(10.0052 0.00925904 0)
(10.0097 0.0117762 0)
(10.0148 0.013557 0)
(10.0202 0.014728 0)
(10.0258 0.0153928 0)
(10.0314 0.0156298 0)
(10.037 0.015514 0)
(10.0424 0.015114 0)
(10.0475 0.0144847 0)
(10.0525 0.0136682 0)
(10.0572 0.0126991 0)
(10.0616 0.0116075 0)
(10.0657 0.0104212 0)
(10.0696 0.00916683 0)
(10.0732 0.00786649 0)
(10.0765 0.0065646 0)
(10.0002 0.00127832 0)
(10.0016 0.0036877 0)
(10.0045 0.00573007 0)
(10.0084 0.00727981 0)
(10.013 0.00834642 0)
(10.018 0.0089947 0)
(10.0231 0.0092889 0)
(10.0283 0.00928129 0)
(10.0335 0.00902074 0)
(10.0386 0.0085533 0)
(10.0435 0.00791816 0)
(10.0482 0.0071473 0)
(10.0526 0.00626768 0)
(10.0568 0.00530338 0)
(10.0608 0.00427623 0)
(10.0645 0.00320712 0)
(10.068 0.00211205 0)
(10.0712 0.00102715 0)
(10.0002 0.000447132 0)
(10.0014 0.00127347 0)
(10.004 0.00193446 0)
(10.0075 0.0023669 0)
(10.0117 0.00256989 0)
(10.0163 0.00256688 0)
(10.0211 0.00238407 0)
(10.026 0.0020452 0)
(10.0309 0.00157389 0)
(10.0357 0.000993001 0)
(10.0404 0.00032278 0)
(10.0448 -0.00041925 0)
(10.0491 -0.00121743 0)
(10.0531 -0.00205723 0)
(10.0569 -0.00292513 0)
(10.0605 -0.00380804 0)
(10.0639 -0.00469675 0)
(10.067 -0.00556404 0)
(10.0001 -0.000474956 0)
(10.0014 -0.00140856 0)
(10.0038 -0.00230542 0)
(10.0071 -0.00316318 0)
(10.0112 -0.00397817 0)
(10.0156 -0.00476109 0)
(10.0202 -0.005526 0)
(10.025 -0.00628043 0)
(10.0297 -0.00702695 0)
(10.0343 -0.0077675 0)
(10.0389 -0.0085039 0)
(10.0432 -0.0092368 0)
(10.0474 -0.00996543 0)
(10.0513 -0.0106879 0)
(10.055 -0.0114018 0)
(10.0585 -0.0121034 0)
(10.0618 -0.0127915 0)
(10.0649 -0.0134489 0)
(10.0002 -0.0013482 0)
(10.0014 -0.00395811 0)
(10.004 -0.00634876 0)
(10.0075 -0.00843605 0)
(10.0117 -0.0102076 0)
(10.0163 -0.0117178 0)
(10.021 -0.0130229 0)
(10.0259 -0.0141574 0)
(10.0306 -0.0151494 0)
(10.0354 -0.0160282 0)
(10.0399 -0.0168189 0)
(10.0443 -0.0175397 0)
(10.0484 -0.0182036 0)
(10.0524 -0.0188204 0)
(10.0561 -0.0193976 0)
(10.0596 -0.0199402 0)
(10.0629 -0.020453 0)
(10.066 -0.020927 0)
(10.0002 -0.00208839 0)
(10.0016 -0.00615409 0)
(10.0043 -0.00984808 0)
(10.0083 -0.0129429 0)
(10.0129 -0.0154455 0)
(10.0177 -0.0175059 0)
(10.0227 -0.0192223 0)
(10.0278 -0.0206346 0)
(10.0328 -0.0217878 0)
(10.0376 -0.0227396 0)
(10.0423 -0.0235392 0)
(10.0467 -0.024221 0)
(10.051 -0.0248105 0)
(10.055 -0.0253274 0)
(10.0588 -0.0257873 0)
(10.0623 -0.026201 0)
(10.0656 -0.0265776 0)
(10.0688 -0.0269142 0)
(10.0002 -0.00277257 0)
(10.0017 -0.00828786 0)
(10.0049 -0.0133154 0)
(10.0094 -0.017327 0)
(10.0145 -0.0204038 0)
(10.0198 -0.0228777 0)
(10.0251 -0.0249021 0)
(10.0305 -0.0265172 0)
(10.0357 -0.0277838 0)
(10.0408 -0.0287799 0)
(10.0456 -0.029568 0)
(10.0502 -0.0301929 0)
(10.0546 -0.0306913 0)
(10.0586 -0.0310935 0)
(10.0625 -0.0314231 0)
(10.0661 -0.031697 0)
(10.0695 -0.0319279 0)
(10.0726 -0.0321157 0)
(10.0001 -0.00338141 0)
(10.0017 -0.0103972 0)
(10.0055 -0.0167675 0)
(10.0109 -0.0216082 0)
(10.0166 -0.025229 0)
(10.0223 -0.0280857 0)
(10.028 -0.0303059 0)
(10.0337 -0.0319742 0)
(10.0393 -0.0332342 0)
(10.0445 -0.0342041 0)
(10.0496 -0.0349491 0)
(10.0543 -0.0355136 0)
(10.0588 -0.035938 0)
(10.063 -0.0362578 0)
(10.0669 -0.0364992 0)
(10.0706 -0.0366812 0)
(10.074 -0.0368183 0)
(10.0772 -0.0369162 0)
(10.0001 -0.00387045 0)
(10.0016 -0.0128894 0)
(10.0061 -0.0203165 0)
(10.0124 -0.025377 0)
(10.0188 -0.0294324 0)
(10.025 -0.0328926 0)
(10.0312 -0.0354899 0)
(10.0373 -0.0372545 0)
(10.0431 -0.0384517 0)
(10.0486 -0.0392824 0)
(10.0538 -0.0398445 0)
(10.0587 -0.0402032 0)
(10.0633 -0.0404171 0)
(10.0676 -0.0405342 0)
(10.0716 -0.040587 0)
(10.0754 -0.0405972 0)
(10.0789 -0.040578 0)
(10.0821 -0.0405262 0)
(9.9998 -0.00354819 0)
(10.0012 -0.0165487 0)
(10.007 -0.0255178 0)
(10.0141 -0.0296896 0)
(10.0207 -0.0330087 0)
(10.0273 -0.036461 0)
(10.0342 -0.0393901 0)
(10.0409 -0.0415639 0)
(10.0473 -0.0431417 0)
(10.0532 -0.0442705 0)
(10.0588 -0.0450307 0)
(10.064 -0.045497 0)
(10.0689 -0.045746 0)
(10.0734 -0.0458425 0)
(10.0776 -0.0458339 0)
(10.0815 -0.0457536 0)
(10.0852 -0.0456273 0)
(10.0886 -0.0454649 0)
(9.99829 9.03756e-07 0)
(9.99797 -0.0176183 0)
(10.0068 -0.0315007 0)
(10.0162 -0.0375841 0)
(10.0234 -0.0402793 0)
(10.0303 -0.0418282 0)
(10.0379 -0.0427817 0)
(10.0455 -0.0434738 0)
(10.0527 -0.0440712 0)
(10.0594 -0.0445818 0)
(10.0657 -0.0449725 0)
(10.0716 -0.0452548 0)
(10.0771 -0.0454508 0)
(10.0821 -0.0455884 0)
(10.0868 -0.0456819 0)
(10.0911 -0.0457476 0)
(10.0951 -0.0457907 0)
(10.0987 -0.0457792 0)
(9.99413 0.00277695 0)
(9.98996 -0.00759974 0)
(10.0032 -0.022858 0)
(10.0185 -0.0396775 0)
(10.0302 -0.0530671 0)
(10.0403 -0.0608367 0)
(10.0501 -0.0643711 0)
(10.0593 -0.0656168 0)
(10.0678 -0.0657023 0)
(10.0756 -0.0650748 0)
(10.083 -0.0640171 0)
(10.0897 -0.062719 0)
(10.0959 -0.0613433 0)
(10.1016 -0.0599706 0)
(10.1067 -0.0586659 0)
(10.1114 -0.0574584 0)
(10.1157 -0.056374 0)
(10.1196 -0.0553652 0)
(9.9942 -0.0305071 0)
(9.99526 -0.0134565 0)
(10.0086 0.0215205 0)
(10.0272 0.0320196 0)
(10.047 0.0241461 0)
(10.0668 0.0116052 0)
(10.085 -0.000111523 0)
(10.1007 -0.0103259 0)
(10.1139 -0.0189644 0)
(10.1251 -0.0260356 0)
(10.1343 -0.0316345 0)
(10.1418 -0.0360041 0)
(10.1476 -0.0393755 0)
(10.152 -0.0419663 0)
(10.155 -0.0439398 0)
(10.1569 -0.0454653 0)
(10.1579 -0.046672 0)
(10.1579 -0.0477054 0)
(10.0368 -0.209412 0)
(10.1083 -0.365899 0)
(10.1423 -0.352746 0)
(10.1567 -0.298034 0)
(10.1697 -0.247622 0)
(10.182 -0.206789 0)
(10.1884 -0.174352 0)
(10.1867 -0.148988 0)
(10.1774 -0.129269 0)
(10.1619 -0.113744 0)
(10.1414 -0.101346 0)
(10.1169 -0.0913148 0)
(10.0894 -0.0831198 0)
(10.0598 -0.0763551 0)
(10.0288 -0.0707401 0)
(9.99692 -0.0660949 0)
(9.96472 -0.0622691 0)
(9.93284 -0.0595639 0)
(9.92866 0.765531 0)
(9.83924 0.742069 0)
(9.70534 0.524432 0)
(9.52636 0.348784 0)
(9.33186 0.227692 0)
(9.14063 0.146988 0)
(8.95883 0.0935851 0)
(8.78893 0.0579915 0)
(8.63234 0.034127 0)
(8.48968 0.0181105 0)
(8.36032 0.00744627 0)
(8.24346 0.000468708 0)
(8.13793 -0.00407864 0)
(8.04264 -0.00693174 0)
(7.9565 -0.00860916 0)
(7.87853 -0.00954662 0)
(7.80737 -0.0100278 0)
(7.74264 -0.0106385 0)
(0.00317467 -0.00587114 -8.33456e-19)
(0.0127331 -0.0138291 7.25904e-19)
(0.024919 -0.0179223 0)
(0.0375514 -0.0183298 0)
(0.0483979 -0.0161605 0)
(0.0565921 -0.0126323 -4.19694e-19)
(0.0619313 -0.00862817 0)
(0.0645331 -0.00467683 0)
(0.0644892 -0.00112251 0)
(0.0621791 0.00177966 0)
(0.0581414 0.0039498 3.95095e-19)
(0.0527633 0.00549539 0)
(0.0463464 0.00661094 0)
(0.0390871 0.00749878 0)
(0.0310721 0.00832869 0)
(0.0223059 0.00921391 4.57913e-19)
(0.0127362 0.0101801 0)
(0.00227827 0.0111353 0)
(-0.00918144 0.0119693 0)
(-0.021805 0.0127538 0)
(-0.0357424 0.0136211 0)
(-0.0511255 0.0146311 0)
(-0.0680865 0.0158088 0)
(-0.0867516 0.0171642 2.98039e-19)
(-0.107232 0.0186937 -2.72372e-19)
(-0.129614 0.0203722 2.49097e-19)
(-0.153938 0.0221469 2.28101e-19)
(-0.180214 0.0239682 0)
(-0.208412 0.0257878 0)
(-0.238463 0.0275605 -1.77232e-19)
(-0.270269 0.0292468 -1.63767e-19)
(-0.303707 0.0308116 0)
(-0.338635 0.0322251 0)
(-0.374896 0.0334635 -1.31597e-19)
(-0.412325 0.0345108 0)
(-0.450745 0.0353581 0)
(-0.489987 0.0360083 1.08838e-19)
(-0.52989 0.0364701 0)
(-0.570302 0.0367555 9.74009e-20)
(-0.611084 0.036879 1.85085e-19)
(-0.65211 0.0368565 0)
(-0.693273 0.0367063 0)
(-0.734486 0.03645 0)
(-0.775681 0.0361148 0)
(-0.8168 0.0357329 0)
(-0.857786 0.03534 1.43367e-19)
(-0.898584 0.0349714 1.38335e-19)
(-0.939301 0.0346285 1.33699e-19)
(-0.979905 0.0342932 0)
(-1.02041 0.0339692 -1.25439e-19)
(-1.06081 0.0336519 0)
(-1.10112 0.0333415 1.18295e-19)
(-1.14133 0.0330364 1.15071e-19)
(-1.18145 0.032736 0)
(-1.22147 0.0324385 0)
(-1.2614 0.0321427 0)
(-1.30122 0.0318469 1.04015e-19)
(-1.34093 0.0315494 0)
(-1.38052 0.0312482 0)
(-1.41998 0.0309415 0)
(-1.45929 0.0306273 0)
(-1.49845 0.0303039 0)
(-1.53743 0.0299694 0)
(-1.5762 0.029622 0)
(-1.61475 0.0292599 0)
(-1.65306 0.0288816 -8.63383e-20)
(-1.69109 0.0284857 0)
(-1.72881 0.0280708 0)
(-1.76619 0.0276359 8.18658e-20)
(-1.8032 0.0271799 8.04855e-20)
(-1.8398 0.0267019 0)
(-1.87595 0.0262013 -7.78665e-20)
(-1.91163 0.0256773 7.66209e-20)
(-1.94677 0.0251296 0)
(-1.98135 0.0245577 -7.42407e-20)
(-2.01533 0.0239615 0)
(-2.04865 0.023341 0)
(-2.08128 0.0226963 7.09046e-20)
(-2.11318 0.0220275 0)
(-2.14428 0.0213347 -6.88054e-20)
(-2.17456 0.0206182 0)
(-2.20397 0.0198785 6.67835e-20)
(-2.23245 0.0191159 6.57959e-20)
(-2.25997 0.0183305 6.48209e-20)
(-2.28648 0.017523 1.27713e-19)
(-2.31193 0.0166936 -1.25802e-19)
(-2.33628 0.0158428 0)
(-2.35949 0.0149707 0)
(-2.3815 0.0140771 0)
(-2.40227 0.0131605 -1.18254e-19)
(-2.42176 0.0122189 -1.16374e-19)
(-2.43993 0.0112498 1.1449e-19)
(-2.45671 0.0102498 0)
(-2.47208 0.00921383 -1.10697e-19)
(-2.48595 0.00813523 -1.08782e-19)
(-2.49829 0.00700558 -1.06854e-19)
(-2.509 0.00581619 0)
(-2.51801 0.00456288 0)
(-2.52524 0.00325828 0)
(-2.53059 0.00195383 -9.89706e-20)
(-2.53393 0.000743927 0)
(-2.53524 -0.000297634 0)
(-2.53502 -0.00123236 9.27133e-20)
(-2.53318 -0.00214532 0)
(-2.52977 -0.00304819 0)
(-2.52478 -0.00394747 8.60073e-20)
(-2.5182 -0.00484332 0)
(-2.51001 -0.00573551 0)
(-2.50022 -0.00662301 -7.87923e-20)
(-2.48881 -0.00750478 -7.62608e-20)
(-2.47578 -0.0083796 0)
(-2.46115 -0.00924626 7.09914e-20)
(-2.44489 -0.0101035 0)
(-2.42703 -0.0109501 -6.54276e-20)
(-2.40757 -0.0117849 0)
(-2.38652 -0.0126065 -5.95468e-20)
(-2.3639 -0.0134136 -5.64805e-20)
(-2.33971 -0.0142046 0)
(-2.31399 -0.0149787 0)
(-2.28674 -0.0157348 0)
(-2.258 -0.0164718 0)
(-2.22779 -0.0171887 0)
(-2.19615 -0.0178844 0)
(-2.16309 -0.0185575 0)
(-2.12867 -0.0192075 -2.85467e-20)
(-2.0929 -0.0198333 2.45845e-20)
(-2.05584 -0.0204347 0)
(-2.01752 -0.0210111 0)
(-1.97798 -0.0215629 0)
(-1.93726 -0.0220904 0)
(-1.89541 -0.0225919 5.94012e-21)
(-1.85247 -0.02307 0)
(-1.80847 -0.023525 1.31894e-20)
(-1.76346 -0.0239533 -2.31869e-20)
(-1.71749 -0.0243557 0)
(-1.67061 -0.0247323 0)
(-1.62286 -0.0250859 0)
(-1.57428 -0.0254174 6.63413e-20)
(-1.52492 -0.0257259 7.79939e-20)
(-1.47482 -0.0260134 0)
(-1.42402 -0.0262819 1.02457e-19)
(-1.37257 -0.0265334 1.15309e-19)
(-1.32051 -0.0267696 -1.28607e-19)
(-1.26788 -0.0269917 0)
(-1.2147 -0.0272016 0)
(-1.16102 -0.0274011 -1.7146e-19)
(-1.10686 -0.0275923 0)
(-1.05226 -0.0277773 0)
(-0.997235 -0.0279581 0)
(-0.941818 -0.0281369 0)
(-0.88603 -0.0283162 2.5501e-19)
(-0.829889 -0.0284982 2.73984e-19)
(-0.773414 -0.0286852 0)
(-0.71662 -0.0288798 3.1473e-19)
(-0.65952 -0.0290841 0)
(-0.602124 -0.0293002 0)
(-0.544442 -0.0295301 3.84217e-19)
(-0.48648 -0.0297757 0)
(-0.428245 -0.0300388 4.37491e-19)
(-0.369739 -0.0303211 0)
(-0.310966 -0.0306222 0)
(-0.251929 -0.030945 5.31092e-19)
(-0.192631 -0.031304 0)
(-0.133083 -0.031708 6.05342e-19)
(-0.0733211 -0.0321072 0)
(-0.0134414 -0.0322756 0)
(0.0463645 -0.0318664 0)
(0.106309 -0.0311185 -6.69482e-19)
(0.166523 -0.0304129 0)
(0.226986 -0.0297733 6.38703e-19)
(0.287723 -0.029185 0)
(0.348746 -0.0286297 0)
(0.410024 -0.0280836 0)
(0.471451 -0.0275112 0)
(0.532854 -0.0268525 0)
(0.593657 -0.0259948 0)
(0.653598 -0.0246712 0)
(0.707989 -0.0222642 -1.10794e-18)
(0.762772 -0.0173744 0)
(0.766415 2.72201e-05 0)
(0.00598887 -0.0269794 2.00196e-18)
(0.0171457 -0.0393146 -1.2545e-18)
(0.0248852 -0.0379327 0)
(0.0296073 -0.0319367 3.98487e-19)
(0.0318682 -0.0241661 0)
(0.031925 -0.0158543 1.55436e-19)
(0.0300572 -0.00772283 -2.95877e-19)
(0.0264747 -0.00020066 -2.87102e-19)
(0.0213649 0.00643672 0)
(0.0147601 0.0120342 -2.80823e-19)
(0.00663238 0.0166075 -1.40523e-19)
(-0.00300586 0.0203256 0)
(-0.014143 0.0234404 0)
(-0.0267651 0.0262205 0)
(-0.040873 0.0288973 0)
(-0.0564936 0.0316426 -1.2044e-19)
(-0.0736879 0.0345581 0)
(-0.0925318 0.037682 2.23467e-19)
(-0.113056 0.0410254 0)
(-0.13527 0.0446105 0)
(-0.159219 0.0484506 -1.99398e-19)
(-0.184946 0.0525255 0)
(-0.212455 0.0567846 1.83807e-19)
(-0.24171 0.0611544 -8.81635e-20)
(-0.272635 0.0655511 8.43475e-20)
(-0.305116 0.0698955 -8.0588e-20)
(-0.339023 0.0741056 -7.6931e-20)
(-0.374213 0.0780931 0)
(-0.410527 0.0817825 0)
(-0.447797 0.0851128 6.6879e-20)
(-0.485851 0.0880401 -6.37065e-20)
(-0.524523 0.090539 0)
(-0.563653 0.0926017 0)
(-0.603093 0.0942252 5.60221e-20)
(-0.642708 0.0954134 0)
(-0.682384 0.096192 0)
(-0.72203 0.0965961 -4.96932e-20)
(-0.761569 0.0966675 0)
(-0.800945 0.0964502 4.60824e-20)
(-0.840116 0.095988 -8.93467e-20)
(-0.879054 0.0953231 0)
(-0.917742 0.0944944 0)
(-0.956179 0.0935382 -1.6246e-19)
(-0.994371 0.0924903 -1.57877e-19)
(-1.03233 0.091388 -1.53608e-19)
(-1.07007 0.0902703 7.46749e-20)
(-1.1076 0.0891723 -7.308e-20)
(-1.1449 0.088105 -2.13696e-19)
(-1.18199 0.0870617 1.39061e-19)
(-1.21885 0.0860408 6.81097e-20)
(-1.25551 0.0850389 0)
(-1.29195 0.0840531 -6.52328e-20)
(-1.32819 0.0830801 6.36163e-20)
(-1.36421 0.0821167 0)
(-1.40003 0.0811588 0)
(-1.43563 0.0802026 0)
(-1.47102 0.0792438 -5.9181e-20)
(-1.50617 0.0782784 0)
(-1.54108 0.0773021 1.13943e-19)
(-1.57574 0.0763106 0)
(-1.61014 0.0752997 1.10132e-19)
(-1.64425 0.0742658 0)
(-1.67805 0.0732049 -1.06593e-19)
(-1.71153 0.0721136 0)
(-1.74466 0.0709888 1.03289e-19)
(-1.77742 0.0698275 -5.07212e-20)
(-1.80979 0.0686271 0)
(-1.84172 0.0673853 -9.86982e-20)
(-1.87321 0.0661001 -4.87552e-20)
(-1.90421 0.0647699 -4.80474e-20)
(-1.9347 0.0633934 0)
(-1.96464 0.0619695 -4.6435e-20)
(-1.99401 0.0604975 -4.60164e-20)
(-2.02276 0.0589769 0)
(-2.05087 0.0574076 4.47258e-20)
(-2.07829 0.0557894 -8.79714e-20)
(-2.105 0.054123 0)
(-2.13096 0.052409 -4.28596e-20)
(-2.15613 0.0506479 0)
(-2.18047 0.0488407 1.24756e-19)
(-2.20396 0.0469887 0)
(-2.22655 0.0450931 -1.2119e-19)
(-2.2482 0.0431554 -3.98605e-20)
(-2.26889 0.041177 3.91142e-20)
(-2.28857 0.0391593 7.70634e-20)
(-2.30721 0.0371039 -7.58976e-20)
(-2.32478 0.0350126 0)
(-2.34123 0.0328873 0)
(-2.35654 0.0307299 0)
(-2.37067 0.0285416 2.13937e-19)
(-2.38358 0.026323 7.01538e-20)
(-2.39526 0.0240744 -6.89237e-20)
(-2.40566 0.0217956 0)
(-2.41476 0.0194861 -6.6342e-20)
(-2.42253 0.0171443 6.51506e-20)
(-2.42897 0.0147684 6.38613e-20)
(-2.43406 0.0123553 0)
(-2.43782 0.00990067 0)
(-2.44028 0.00740581 0)
(-2.44152 0.00489896 5.85329e-20)
(-2.44164 0.0024553 0)
(-2.4407 0.000155209 -1.11507e-19)
(-2.43829 -0.00203533 -1.6285e-19)
(-2.43439 -0.00418606 1.05678e-19)
(-2.42895 -0.00630888 0)
(-2.42197 -0.00841035 4.9943e-20)
(-2.41342 -0.0104901 0)
(-2.4033 -0.0125465 9.3407e-20)
(-2.39159 -0.0145767 -4.52647e-20)
(-2.3783 -0.0165781 -4.36488e-20)
(-2.36341 -0.0185475 0)
(-2.34694 -0.0204821 -1.20149e-19)
(-2.32889 -0.0223789 7.67982e-20)
(-2.30925 -0.0242351 3.64091e-20)
(-2.28804 -0.026048 0)
(-2.26526 -0.0278151 3.27854e-20)
(-2.24094 -0.0295337 9.3348e-20)
(-2.21509 -0.0312012 0)
(-2.18772 -0.0328151 5.48592e-20)
(-2.15887 -0.0343733 5.09852e-20)
(-2.12854 -0.0358743 4.70496e-20)
(-2.09677 -0.0373159 0)
(-2.06359 -0.0386967 0)
(-2.02903 -0.0400145 0)
(-1.99312 -0.0412684 -1.57393e-20)
(-1.9559 -0.042457 -1.28351e-20)
(-1.9174 -0.0435797 0)
(-1.87767 -0.0446359 -1.78343e-20)
(-1.83674 -0.0456261 -1.34356e-20)
(-1.79466 -0.0465512 0)
(-1.75146 -0.0474135 -3.58659e-21)
(-1.70719 -0.0482165 1.37541e-22)
(-1.66188 -0.0489625 -5.59561e-21)
(-1.61559 -0.0496424 -8.37198e-21)
(-1.56835 -0.0502515 0)
(-1.5202 -0.050801 0)
(-1.4712 -0.0512953 0)
(-1.42138 -0.0517329 -2.93175e-20)
(-1.37079 -0.0521148 3.2192e-20)
(-1.31947 -0.0524438 7.61611e-20)
(-1.26746 -0.0527236 -4.40196e-20)
(-1.21479 -0.0529574 4.69624e-20)
(-1.16152 -0.0531488 5.39962e-20)
(-1.10766 -0.0532999 0)
(-1.05326 -0.0534142 0)
(-0.998349 -0.0534941 -6.71548e-20)
(-0.942951 -0.0535432 0)
(-0.887094 -0.0535641 0)
(-0.830803 -0.0535604 1.67384e-19)
(-0.774101 -0.0535346 0)
(-0.717008 -0.0534903 9.31709e-20)
(-0.659542 -0.05343 -1.00549e-19)
(-0.601716 -0.0533573 0)
(-0.543546 -0.0532742 1.09221e-19)
(-0.48504 -0.0531845 0)
(-0.426208 -0.0530895 0)
(-0.367057 -0.0529925 -1.27714e-19)
(-0.307591 -0.0528948 2.64503e-19)
(-0.247814 -0.0527988 -1.38907e-19)
(-0.187726 -0.0527066 0)
(-0.127331 -0.0526196 0)
(-0.0666297 -0.0525366 1.54047e-19)
(-0.00564397 -0.0524462 0)
(0.0556139 -0.0523295 1.61998e-19)
(0.11719 -0.0521805 0)
(0.179154 -0.0519572 0)
(0.241491 -0.0515826 0)
(0.304139 -0.0511248 1.7085e-19)
(0.367081 -0.0506916 0)
(0.430345 -0.0502934 -1.74241e-19)
(0.493929 -0.0499166 0)
(0.557814 -0.0495347 0)
(0.621944 -0.0491076 3.55855e-19)
(0.686197 -0.0485713 -3.58698e-19)
(0.750371 -0.0478117 0)
(0.813965 -0.046619 0)
(0.87657 -0.0444818 0)
(0.935241 -0.040466 1.11522e-18)
(0.993246 -0.0314174 0)
(1.02686 -0.00829769 -7.77562e-19)
(0.00475265 -0.048382 -4.43375e-22)
(0.0102007 -0.0538523 1.28175e-18)
(0.0114026 -0.0437119 0)
(0.00998941 -0.0315215 -5.56624e-19)
(0.00663879 -0.0193618 0)
(0.00166597 -0.0077062 0)
(-0.0047019 0.00320889 3.96726e-23)
(-0.01235 0.01323 1.75749e-19)
(-0.0212575 0.0222859 1.67195e-19)
(-0.0314605 0.0303732 1.6093e-19)
(-0.0430272 0.0375557 0)
(-0.0560329 0.043973 0)
(-0.0705432 0.049826 -1.46869e-19)
(-0.0866047 0.0553404 -2.854e-19)
(-0.104246 0.0607288 2.772e-19)
(-0.123481 0.066163 0)
(-0.144317 0.0717599 2.61168e-19)
(-0.166751 0.0775827 -1.26776e-19)
(-0.19076 0.0836523 0)
(-0.216299 0.0899484 2.3798e-19)
(-0.243297 0.0964179 1.15266e-19)
(-0.271657 0.102982 -2.22654e-19)
(-0.301258 0.10954 -1.07606e-19)
(-0.331963 0.115977 0)
(-0.363621 0.122176 1.99984e-19)
(-0.39608 0.128025 1.92727e-19)
(-0.429187 0.133428 0)
(-0.462789 0.138307 1.78866e-19)
(-0.49675 0.142598 0)
(-0.530945 0.146261 1.66036e-19)
(-0.565269 0.149273 8.00862e-20)
(-0.599635 0.151631 0)
(-0.633969 0.153349 0)
(-0.668202 0.154467 0)
(-0.702301 0.155034 0)
(-0.73625 0.155108 0)
(-0.770042 0.154748 0)
(-0.803676 0.154017 1.26053e-19)
(-0.837157 0.152978 -1.83487e-19)
(-0.870494 0.151688 0)
(-0.903697 0.150205 0)
(-0.936779 0.148577 0)
(-0.969754 0.146849 9.98715e-23)
(-1.00263 0.145058 1.06842e-19)
(-1.03543 0.143241 2.08427e-19)
(-1.06815 0.141425 -2.03564e-19)
(-1.10078 0.13963 -9.94201e-20)
(-1.13332 0.137865 9.73667e-20)
(-1.16576 0.136131 -1.3472e-22)
(-1.19811 0.134427 9.31933e-20)
(-1.23036 0.132751 0)
(-1.2625 0.131098 8.95234e-20)
(-1.29454 0.129463 -1.50887e-22)
(-1.32646 0.127841 0)
(-1.35827 0.126224 0)
(-1.38994 0.124608 -8.3091e-20)
(-1.42147 0.122984 0)
(-1.45285 0.121347 0)
(-1.48407 0.11969 7.87336e-20)
(-1.51511 0.118007 1.55191e-19)
(-1.54596 0.116292 -7.65009e-20)
(-1.57659 0.114539 0)
(-1.60699 0.112743 7.41017e-20)
(-1.63714 0.110898 0)
(-1.66701 0.109001 7.15163e-20)
(-1.69658 0.107047 7.07519e-20)
(-1.72582 0.105033 -1.39067e-19)
(-1.75471 0.102956 -6.83437e-20)
(-1.78322 0.100812 0)
(-1.81132 0.0986009 1.33e-19)
(-1.83898 0.0963196 0)
(-1.86617 0.0939672 1.93877e-19)
(-1.89286 0.091543 1.2728e-19)
(-1.91901 0.0890463 1.25434e-19)
(-1.94459 0.0864774 -1.23614e-19)
(-1.96957 0.0838365 1.82855e-19)
(-1.99391 0.0811244 0)
(-2.01758 0.0783421 0)
(-2.04054 0.0754911 -1.16527e-19)
(-2.06275 0.0725729 -1.72297e-19)
(-2.08419 0.0695895 0)
(-2.1048 0.066543 5.57709e-20)
(-2.12456 0.0634357 0)
(-2.14344 0.0602702 -1.61943e-19)
(-2.16138 0.057049 -1.66866e-22)
(-2.17837 0.053775 1.53928e-22)
(-2.19436 0.050451 1.02735e-19)
(-2.20932 0.0470801 0)
(-2.22321 0.0436656 -9.92567e-20)
(-2.23601 0.0402102 -9.82073e-23)
(-2.24769 0.0367169 0)
(-2.2582 0.0331886 0)
(-2.26754 0.0296288 0)
(-2.27567 0.0260412 9.03713e-20)
(-2.28257 0.022431 0)
(-2.28822 0.0188053 0)
(-2.29263 0.0151745 0)
(-2.29578 0.0115534 0)
(-2.29768 0.00796268 0)
(-2.29831 0.00442539 7.89878e-20)
(-2.29765 0.000948863 0)
(-2.29561 -0.00249489 7.4807e-20)
(-2.29215 -0.00592362 7.27134e-20)
(-2.28723 -0.00932811 -7.05929e-20)
(-2.28083 -0.0127039 0)
(-2.27293 -0.0160476 -6.62675e-20)
(-2.26351 -0.0193552 0)
(-2.25257 -0.022622 -6.18258e-20)
(-2.24009 -0.0258433 5.95603e-20)
(-2.22608 -0.0290144 1.72291e-19)
(-2.21052 -0.0321302 0)
(-2.19343 -0.0351861 1.58319e-19)
(-2.17479 -0.0381772 5.08033e-20)
(-2.15463 -0.0410989 0)
(-2.13294 -0.0439469 9.13471e-20)
(-2.10973 -0.0467171 8.64312e-20)
(-2.08502 -0.0494051 -1.21811e-19)
(-2.05883 -0.0520071 0)
(-2.03117 -0.0545193 -3.52611e-20)
(-2.00206 -0.0569385 -3.26739e-20)
(-1.97153 -0.0592616 -9.10609e-20)
(-1.93959 -0.0614858 0)
(-1.90629 -0.0636086 0)
(-1.87165 -0.0656274 0)
(-1.83569 -0.0675403 -2.03639e-20)
(-1.79847 -0.0693456 0)
(-1.76 -0.0710424 0)
(-1.72033 -0.07263 1.11403e-20)
(-1.6795 -0.0741088 8.36397e-21)
(-1.63755 -0.0754803 0)
(-1.59451 -0.0767479 0)
(-1.55043 -0.0779158 -8.47196e-23)
(-1.50535 -0.0789869 0)
(-1.4593 -0.0799542 1.13895e-20)
(-1.41233 -0.0808125 1.58727e-20)
(-1.36447 -0.0815721 0)
(-1.31578 -0.0822391 0)
(-1.26629 -0.0828137 -3.28997e-20)
(-1.21604 -0.0832986 -1.2292e-21)
(-1.16506 -0.0836978 -1.23598e-21)
(-1.11341 -0.0840168 0)
(-1.06112 -0.0842607 -1.12469e-19)
(-1.00821 -0.0844346 0)
(-0.954731 -0.0845427 0)
(-0.900706 -0.08459 0)
(-0.846165 -0.0845805 7.94416e-20)
(-0.791135 -0.0845194 0)
(-0.73564 -0.0844109 -1.78776e-19)
(-0.679703 -0.0842603 -9.62157e-20)
(-0.623345 -0.0840713 0)
(-0.566584 -0.0838492 -1.07307e-19)
(-0.509435 -0.0835978 0)
(-0.451913 -0.0833217 0)
(-0.394029 -0.0830245 -3.68916e-19)
(-0.335792 -0.0827106 2.56041e-19)
(-0.277211 -0.0823826 0)
(-0.21829 -0.0820442 2.77791e-19)
(-0.159033 -0.0816979 -1.45545e-19)
(-0.0994442 -0.081346 0)
(-0.0395221 -0.0809899 0)
(0.0207211 -0.0806266 0)
(0.0812912 -0.0802543 -4.89833e-19)
(0.142198 -0.0798747 0)
(0.203451 -0.0794865 -1.70053e-19)
(0.265063 -0.0790863 0)
(0.327064 -0.0786691 0)
(0.389479 -0.0782522 0)
(0.45229 -0.0778516 0)
(0.515475 -0.0774732 0)
(0.579026 -0.0771165 0)
(0.642923 -0.0767613 -3.76633e-19)
(0.707129 -0.0763712 0)
(0.771577 -0.0758887 -1.9448e-19)
(0.836143 -0.0752195 5.88723e-19)
(0.90063 -0.0741986 0)
(0.96461 -0.0725229 0)
(1.02775 -0.0695619 -4.06805e-19)
(1.08806 -0.0641189 -4.14461e-19)
(1.14861 -0.0532375 4.20294e-19)
(1.19577 -0.0294699 4.33917e-19)
(0.00110777 -0.0578642 -3.05488e-18)
(5.38346e-05 -0.0529926 -1.59473e-18)
(-0.00414864 -0.0373193 -6.11358e-19)
(-0.0101668 -0.0214511 -2.18019e-19)
(-0.0175355 -0.00641606 0)
(-0.0260234 0.00770297 3.0806e-19)
(-0.0355451 0.0208969 -1.39494e-19)
(-0.0460969 0.0331558 0)
(-0.0577191 0.044489 -1.23748e-19)
(-0.0704793 0.0549414 0)
(-0.0844586 0.0646028 2.30057e-19)
(-0.0997367 0.0736082 0)
(-0.116378 0.0821265 1.08647e-19)
(-0.134421 0.0903366 2.1138e-19)
(-0.153876 0.0984011 -2.05571e-19)
(-0.174723 0.106445 0)
(-0.196919 0.114544 -1.94069e-19)
(-0.220396 0.122723 0)
(-0.245069 0.130959 0)
(-0.270832 0.139193 -1.77003e-19)
(-0.297563 0.147336 0)
(-0.325125 0.155284 6.50386e-23)
(-0.353377 0.162924 0)
(-0.382178 0.170145 0)
(-0.411392 0.176843 -3.8705e-23)
(-0.440899 0.182933 -1.44434e-19)
(-0.470586 0.188342 -1.39435e-19)
(-0.500361 0.193024 -1.34654e-19)
(-0.530147 0.19695 0)
(-0.559886 0.200118 -2.51227e-19)
(-0.589537 0.202539 0)
(-0.619076 0.204244 -1.1736e-19)
(-0.648491 0.205275 0)
(-0.67779 0.205693 0)
(-0.706987 0.205571 1.06588e-19)
(-0.736094 0.204981 0)
(-0.765127 0.20399 -1.00403e-19)
(-0.794106 0.202664 7.52367e-24)
(-0.823047 0.201064 1.8981e-19)
(-0.851969 0.199248 -1.84786e-19)
(-0.880885 0.197268 0)
(-0.909806 0.195168 0)
(-0.938741 0.192989 -8.56401e-20)
(-0.967696 0.190763 0)
(-0.996671 0.188518 -8.17622e-20)
(-1.02567 0.186275 7.99517e-20)