/*--------------------------------*- C++ -*----------------------------------*\
| =========                 |                                                 |
| \\      /  F ield         | OpenFOAM: The Open Source CFD Toolbox           |
|  \\    /   O peration     | Version:  2406                                  |
|   \\  /    A nd           | Website:  www.openfoam.com                      |
|    \\/     M anipulation  |                                                 |
\*---------------------------------------------------------------------------*/
FoamFile
{
    version     2.0;
    format      ascii;
    arch        "LSB;label=32;scalar=64";
    class       volScalarField;
    location    "200";
    object      k;
}
// * * * * * * * * * * * * * * * * * * * * * * * * * * * * * * * * * * * * * //

dimensions      [0 2 -2 0 0 0 0];

internalField   nonuniform List<scalar> 
71615
(
0.019677405
0.019687245
0.017012407
0.017008041
0.014895611
0.014891126
0.013239275
0.013235926
0.011912281
0.011910019
0.010833309
0.010832251
0.009951129
0.0099519406
0.0092355733
0.0092399935
0.0086690025
0.0086802475
0.0082310123
0.008252856
0.0078792299
0.0079117821
0.0075561733
0.007591738
0.0072328959
0.0072631311
0.0069192769
0.0069447191
0.006629508
0.0066649141
0.006372518
0.0064347809
0.0061699367
0.0063348129
0.0060600279
0.0064253644
0.0061560023
0.0068345645
0.0066098702
0.0077475969
0.0077043101
0.0093788662
0.0098235948
0.011861188
0.019680003
0.019658112
0.019652979
0.019652119
0.019653522
0.01966223
0.019687981
0.017005562
0.016712251
0.016702022
0.016698584
0.016705406
0.016998353
0.017005892
0.014892413
0.014670059
0.014665489
0.01466296
0.014666687
0.014890872
0.014891537
0.013237525
0.013058689
0.013055512
0.013053077
0.013056204
0.013236559
0.013236923
0.011911782
0.011764921
0.011761623
0.011758831
0.011762449
0.011910577
0.011911464
0.010834217
0.010713139
0.010709494
0.010706117
0.010710542
0.010832495
0.010834086
0.0099540568
0.0098575182
0.0098550326
0.0098510214
0.0098556001
0.0099522407
0.0099539444
0.0092415649
0.0091748625
0.0091789158
0.0091746795
0.00917662
0.0092419027
0.0092411086
0.0086790121
0.0086555896
0.0086782435
0.0086759856
0.0086692086
0.008687815
0.0086774614
0.0082447282
0.0082777817
0.0083130829
0.0083017391
0.0083196322
0.0082721227
0.008240988
0.0078944368
0.0079545972
0.0083383722
0.0086128713
0.0080755031
0.0079479884
0.0078878091
0.0075694059
0.0078616527
0.010714114
0.012540171
0.0088239186
0.0076456056
0.0075610116
0.0072412671
0.0086190603
0.018529257
0.023920956
0.012330267
0.0073551013
0.007232938
0.0069243045
0.011087702
0.030815519
0.039302019
0.019624269
0.0072334127
0.00691458
0.0066330555
0.015830448
0.044753306
0.055238951
0.029747596
0.0074854592
0.0066210215
0.0063960896
0.022706225
0.057953018
0.069794064
0.040891592
0.0085170796
0.006358529
0.0062679691
0.030846213
0.069441406
0.081173002
0.051488701
0.010855328
0.0061297519
0.0063101882
0.039201721
0.078418431
0.088900463
0.060800764
0.014996449
0.0060018431
0.0066697647
0.046945386
0.084360841
0.093468293
0.068252467
0.020580542
0.0060325646
0.0075663573
0.053712546
0.087689752
0.09554961
0.073385651
0.02675787
0.0063783663
0.009235479
0.058929023
0.089100563
0.095844408
0.076588664
0.032705442
0.0072837419
0.011788184
0.063125198
0.089583272
0.095100415
0.078908164
0.03804475
0.0090206912
0.01967309
0.019651947
0.019650735
0.019650689
0.019650699
0.019650696
0.019650841
0.019653447
0.019681007
0.017000676
0.016695888
0.016686813
0.016682988
0.016682327
0.016684407
0.016691094
0.016709814
0.017003027
0.014889795
0.014662349
0.014656448
0.014651814
0.014650779
0.01465378
0.014660164
0.014669427
0.014889813
0.013235237
0.013053375
0.013048528
0.013044188
0.013043087
0.013046146
0.013051645
0.013058385
0.013234883
0.011909848
0.011759626
0.011753001
0.011747316
0.011745876
0.011749864
0.01175686
0.011764858
0.011909319
0.01083299
0.010707372
0.010699031
0.01069199
0.010690273
0.010695091
0.010703619
0.010713788
0.010832011
0.0099544606
0.0098530258
0.0098485558
0.0098446105
0.0098445904
0.0098463116
0.0098509068
0.0098601001
0.0099520395
0.0092454221
0.0091781886
0.0091988487
0.0092203118
0.0092378883
0.009207819
0.0091869051
0.0091816697
0.0092394076
0.0086889377
0.0086837077
0.0087552667
0.0089107039
0.0090355195
0.0087941162
0.0087315604
0.008669316
0.0086759244
0.0082631333
0.0083418306
0.0096558731
0.024865541
0.034503387
0.013897631
0.0085338618
0.0083034404
0.0082395104
0.0079216612
0.0084439624
0.032838145
0.12281935
0.15426966
0.075184971
0.012372955
0.0080050436
0.0078863088
0.0076019349
0.01160081
0.094090754
0.22752365
0.26082598
0.1684459
0.035961529
0.0079196206
0.007559393
0.0072751392
0.022814106
0.14963315
0.2739608
0.30205533
0.22217502
0.073455852
0.0087060576
0.0072306276
0.0069690343
0.040480385
0.18016963
0.28630504
0.30957203
0.24278836
0.10691014
0.01159097
0.0069111187
0.0067182907
0.060512828
0.19290096
0.28149316
0.30041403
0.24560895
0.12855118
0.017680787
0.0066178996
0.0066265948
0.077915611
0.19499145
0.26767966
0.28286236
0.23851904
0.14014256
0.026736581
0.0063593011
0.006837364
0.090223381
0.19069649
0.24994359
0.26208168
0.2263365
0.14477261
0.037152778
0.006153831
0.0076629512
0.097798646
0.18291779
0.23130051
0.24106645
0.21212171
0.14467918
0.047208829
0.0060725951
0.009496598
0.10170352
0.17357426
0.21336236
0.22130839
0.19764737
0.1416481
0.055908601
0.0062138759
0.012742786
0.10302887
0.16389315
0.19692042
0.20345532
0.18391427
0.13704905
0.062783263
0.0068181194
0.017173899
0.1028552
0.15474916
0.18228278
0.18766785
0.17148249
0.13202206
0.067612598
0.0081931899
0.022130995
0.10245546
0.14665224
0.16958672
0.17402668
0.1606165
0.12747339
0.071424378
0.010532618
0.019679993
0.019651945
0.01965066
0.019650628
0.019650609
0.019650606
0.019650616
0.019650644
0.019650724
0.01965403
0.019676114
0.017005508
0.016695862
0.01668362
0.016678299
0.016676146
0.016675763
0.016676964
0.016680385
0.016688722
0.016712013
0.017008144
0.014892338
0.014662349
0.0146529
0.014644547
0.014639962
0.014639035
0.014641811
0.014648229
0.014658135
0.014669195
0.014893845
0.013237442
0.013053372
0.013045415
0.013035583
0.013028632
0.01302712
0.013031552
0.013040406
0.01305001
0.013057765
0.013238169
0.011911693
0.011759606
0.011749039
0.011736129
0.011726614
0.011724424
0.011730662
0.011742523
0.011755016
0.011764293
0.011911857
0.010834108
0.010707329
0.010694222
0.010679466
0.010669802
0.010666736
0.010673715
0.010686573
0.010701649
0.010713213
0.010833587
0.0099539184
0.009852967
0.0098461716
0.0098458533
0.0098695362
0.009860672
0.0098535642
0.0098440053
0.0098501767
0.0098588333
0.0099520138
0.0092414175
0.0091781603
0.0092122324
0.0092325809
0.0096604269
0.0099856406
0.0093683869
0.0092439748
0.0091917443
0.0091779659
0.0092365204
0.0086789308
0.008683768
0.0088274063
0.014645465
0.073431177
0.10093269
0.037693495
0.0094834553
0.0087518656
0.0086600868
0.0086683915
0.0082448355
0.0083396885
0.014169128
0.17317989
0.43227386
0.498341
0.31496449
0.057895837
0.0087344931
0.0082843817
0.0082260948
0.0078948607
0.0084526623
0.082400957
0.4053559
0.66798583
0.7282678
0.55695538
0.23381788
0.016877788
0.0079831263
0.0078683369
0.0075701388
0.011667001
0.18575329
0.48699343
0.68959703
0.73319085
0.60531479
0.34296528
0.054441676
0.0077628282
0.0075413363
0.0072422002
0.023067114
0.24030304
0.48847593
0.64829957
0.68320462
0.5821219
0.3727281
0.10496226
0.008059053
0.0072171053
0.0069254151
0.040929922
0.25932683
0.46166881
0.58554087
0.61164468
0.53491016
0.36865295
0.14000175
0.0096286541
0.0069030749
0.0066338673
0.061092632
0.25984584
0.4216524
0.51461348
0.53345711
0.47724379
0.34862901
0.15855983
0.013358996
0.0066124817
0.006399134
0.078465459
0.25043009
0.3782907
0.44788237
0.4615769
0.42028141
0.32153795
0.16617827
0.019577606
0.0063486683
0.0062744349
0.090695586
0.23611911
0.33731875
0.39027266
0.40048115
0.36946664
0.29296543
0.16675925
0.027586815
0.0061227195
0.0063249267
0.098195893
0.22008914
0.30101541
0.34223853
0.3500808
0.32613851
0.26586413
0.16305094
0.036227893
0.0059526557
0.0067013074
0.10203781
0.20417745
0.26980795
0.30264705
0.30884116
0.28986942
0.2414703
0.15702619
0.044424898
0.0059122492
0.0076270424
0.10330514
0.1893789
0.24336997
0.2700152
0.27500954
0.25967424
0.22016624
0.15002674
0.051593896
0.0061122936
0.0093376392
0.10308599
0.17617757
0.22099897
0.242943
0.24704542
0.23443326
0.20179817
0.14307623
0.057306955
0.0067644125
0.011935265
0.10263612
0.16472807
0.20236356
0.22087369
0.2243452
0.21367927
0.18622363
0.13686041
0.061918843
0.0081997491
0.019658112
0.019650735
0.019650627
0.019650591
0.019650571
0.019650567
0.019650577
0.019650604
0.019650653
0.019650986
0.019669572
0.016712243
0.016686801
0.01667829
0.016674577
0.01667283
0.016672494
0.01667352
0.016676111
0.016681588
0.016693099
0.017002057
0.014670038
0.01465642
0.014644525
0.014636319
0.014631576
0.014630599
0.014633516
0.014640007
0.014650064
0.014659625
0.014891887
0.013058636
0.013048471
0.013035543
0.013022625
0.013014108
0.013012287
0.013017665
0.01302876
0.013042437
0.013050449
0.013237513
0.01176482
0.011752898
0.011736059
0.011718058
0.011705554
0.011703075
0.011710701
0.011726866
0.011745115
0.011756358
0.011911981
0.010712982
0.01069888
0.010679372
0.010660658
0.010649696
0.010652099
0.010651656
0.010670304
0.010689499
0.010703802
0.010835152
0.0098573307
0.0098483956
0.0098458455
0.0098637661
0.0098231974
0.0098479503
0.0097841975
0.0098721678
0.0098445178
0.0098496934
0.0099576192
0.0091747467
0.0091987577
0.0092340374
0.012015342
0.040410943
0.056173224
0.021618804
0.0095902616
0.0092416139
0.0091769172
0.0092521495
0.0086558372
0.0087543743
0.014769287
0.21154457
0.55213945
0.63982931
0.39591397
0.065977668
0.0090465106
0.0086888082
0.0087042698
0.0082787488
0.009699417
0.17515601
0.69740044
1.1367493
1.2408505
0.9457902
0.42341864
0.035745222
0.0083446815
0.0082932767
0.0079560673
0.033622574
0.40768903
0.90526767
1.2948539
1.3916767
1.1233857
0.66085737
0.16849556
0.0090693313
0.0079645818
0.0078760449
0.095920035
0.48858944
0.86682408
1.0830524
1.1868741
1.02253
0.68479613
0.27982724
0.016234698
0.0076505462
0.0086825959
0.15157384
0.48953628
0.78800462
1.0114706
1.0663488
0.91270711
0.6450929
0.31999049
0.03391792
0.0073356439
0.01125725
0.18176201
0.46242052
0.68866805
0.83503015
0.86718136
0.77345815
0.58350325
0.32516561
0.055478659
0.0071638724
0.016150711
0.19418856
0.42220805
0.58792489
0.68237136
0.70151541
0.64406734
0.51335179
0.31348647
0.076261482
0.0072701185
0.023169817
0.19602248
0.37871205
0.50050605
0.56392997
0.57610256
0.53884569
0.44706514
0.29357359
0.09228132
0.0078928057
0.031409378
0.19151678
0.33764366
0.42915971
0.47407887
0.48240593
0.45659835
0.38970078
0.27075422
0.10268868
0.0093052535
0.039812104
0.18357055
0.30126916
0.37194725
0.4054075
0.4114845
0.39251212
0.34181101
0.24808734
0.10846838
0.011683242
0.047568809
0.17409439
0.27000801
0.32605252
0.35201547
0.35667789
0.34206489
0.30232264
0.22705781
0.11081967
0.015061215
0.054300536
0.16431045
0.24353041
0.2889074
0.30970045
0.31341982
0.30174829
0.26977897
0.20829774
0.11078572
0.019331276
0.059455835
0.15508605
0.22112821
0.25853806
0.27565997
0.27872638
0.26910941
0.24278664
0.19192682
0.10943827
0.024010191
0.063590966
0.1469251
0.20246918
0.23418995
0.24892888
0.2515953
0.24326389
0.22077945
0.17791325
0.10806184
0.028578432
0.019677318
0.01965298
0.019650689
0.019650609
0.019650571
0.019650548
0.019650542
0.019650555
0.019650583
0.019650632
0.019650779
0.019657058
0.017012283
0.016702014
0.016682975
0.016676129
0.01667282
0.016671124
0.016670786
0.016671807
0.016674231
0.016678836
0.016689974
0.016995855
0.014895513
0.01466546
0.014651774
0.014639917
0.014631549
0.014626536
0.014625489
0.014628602
0.014635363
0.014645358
0.014659052
0.014890565
0.013239171
0.01305544
0.0130441
0.01302854
0.013014053
0.01300455
0.013002509
0.013008516
0.01302093
0.01303659
0.013050627
0.013236211
0.011912148
0.011761487
0.01174716
0.011726462
0.011705464
0.011692932
0.011690125
0.011697853
0.011715538
0.01173735
0.011755358
0.011910156
0.01083313
0.010709291
0.010691779
0.010669602
0.010649627
0.010675581
0.010676798
0.010655649
0.010657958
0.01068062
0.010701457
0.010832792
0.0099509101
0.0098548159
0.0098446651
0.0098693153
0.0098237618
0.010537657
0.011151256
0.010005061
0.0098560822
0.0098442056
0.00984895
0.0099555248
0.0092353841
0.0091787754
0.0092264735
0.0096733545
0.040721958
0.19054187
0.24781495
0.10465798
0.014398487
0.0091979144
0.0091911572
0.0092529888
0.0086690246
0.0086790513
0.0089154891
0.074839428
0.55481662
1.0471841
1.1618023
0.83052851
0.27263439
0.013219759
0.00874342
0.0087142207
0.0082315172
0.0083123594
0.025634183
0.43757592
1.1428202
1.7139155
1.8355799
1.4669185
0.78332722
0.14969314
0.0089319037
0.0083198406
0.0078803344
0.0083599445
0.12550737
0.6717433
1.1893657
1.7652108
1.9231631
1.6442802
0.9772309
0.37187431
0.019971942
0.0080091248
0.0075576435
0.01084677
0.23021788
0.69189003
1.0848094
1.5061047
1.7231646
1.4702464
0.92040255
0.45760072
0.058290405
0.0077854331
0.0072344951
0.018939351
0.27604248
0.64980517
1.0126112
1.3359613
1.4075364
1.1903628
0.8290586
0.46388717
0.10205897
0.0079644074
0.006920947
0.031475633
0.28792604
0.58664445
0.83573885
1.0104577
1.0486807
0.93559934
0.71716066
0.44145159
0.13326492
0.0091303479
0.0066312238
0.045552853
0.28277143
0.51543439
0.68282853
0.78015517
0.79990723
0.74032017
0.60706361
0.40563601
0.15100048
0.011856645
0.0063752012
0.058795898
0.26869685
0.4485043
0.56424222
0.62331362
0.63448605
0.59997551
0.51371239
0.36582448
0.15894391
0.016298938
0.0061749189
0.070282199
0.25075602
0.39075205
0.47430332
0.51354193
0.52059743
0.49840475
0.43868256
0.32760492
0.160405
0.022355844
0.006071988
0.079190824
0.23195344
0.34261468
0.40557588
0.43373021
0.43864108
0.42302482
0.37912025
0.2933541
0.15768038
0.02949116
0.0061809296
0.085043381
0.21389189
0.30294727
0.3521463
0.37357456
0.37726043
0.36548421
0.33165215
0.26365048
0.15249901
0.036641255
0.0066626119
0.088285363
0.19735435
0.2702588
0.3098051
0.32686055
0.3297838
0.32043637
0.29339748
0.23830006
0.14611437
0.042974024
0.0078094176
0.089617836
0.18264202
0.24314368
0.27574583
0.28983949
0.29226527
0.2845244
0.26222397
0.21672489
0.13945624
0.048101036
0.01000539
0.090033875
0.16988783
0.22104279
0.24900196
0.26137314
0.26353914
0.25667432
0.23733592
0.19866704
0.13327047
0.052036211
0.019687545
0.01965212
0.019650698
0.019650606
0.019650566
0.019650542
0.019650535
0.019650549
0.019650578
0.019650627
0.019650776
0.019654764
0.017007976
0.016698578
0.016682309
0.016675738
0.016672475
0.016670778
0.016670438
0.016671462
0.016673874
0.016678358
0.01668878
0.016715294
0.014891058
0.014662928
0.014650728
0.014638972
0.014630548
0.014625464
0.0146244
0.014627562
0.014634398
0.014644389
0.014657864
0.014669711
0.013235845
0.013052995
0.013042977
0.013026994
0.013012184
0.013002456
0.013000358
0.01300654
0.013019212
0.013035235
0.013049639
0.013057863
0.011909904
0.011758676
0.011745686
0.011724216
0.01170291
0.011690038
0.011686985
0.011695793
0.011712896
0.011735532
0.011754205
0.011764005
0.010832079
0.010705896
0.010690019
0.010666499
0.010652005
0.010676636
0.010672885
0.010677644
0.010652544
0.01067863
0.010700234
0.010711954
0.0099517542
0.009850809
0.0098444458
0.0098607731
0.0098506261
0.011166086
0.012173974
0.010193849
0.0097676841
0.0098464318
0.0098487512
0.0098551882
0.0092398937
0.0091746999
0.0092385464
0.010011985
0.056953659
0.24905429
0.31464057
0.14191773
0.017891209
0.0092425165
0.0091957581
0.0091693597
0.0086804897
0.0086766327
0.0090529114
0.10327167
0.64439744
1.1645794
1.282654
0.9370309
0.3374996
0.017191949
0.0087582634
0.0086432617
0.0082537209
0.0083049226
0.035498862
0.50436888
1.2496582
1.8400249
1.9508942
1.588926
0.86983967
0.19087724
0.0094124338
0.0082558134
0.0079132299
0.0086413651
0.15688325
0.73284735
1.3273213
1.9281157
1.9769975
1.8308259
1.0545824
0.42141392
0.02677156
0.0079440878
0.0075932806
0.012696886
0.26299019
0.73559819
1.1905837
1.7272352
1.7475729
1.7071858
1.0555441
0.49677401
0.074843243
0.0077036269
0.007264559
0.024285397
0.30374056
0.68518684
1.0693269
1.4104072
1.4698945
1.2613267
0.87175451
0.49511971
0.12334738
0.0079404454
0.0069462814
0.039831444
0.3109434
0.61319265
0.86895464
1.0500408
1.0879073
0.97239411
0.74609696
0.46624861
0.15365828
0.0091653466
0.0066663954
0.05588938
0.30153988
0.53459204
0.7025574
0.8005657
0.82023037
0.76026696
0.62623224
0.42478448
0.16899964
0.011736706
0.0064388727
0.070497738
0.28378377
0.46240918
0.57675693
0.6348484
0.64575639
0.61183974
0.52681673
0.38050657
0.17426936
0.015815523
0.0063435511
0.081857494
0.26283568
0.40110641
0.48284988
0.52082351
0.52758536
0.50617939
0.44806942
0.33896466
0.17319437
0.021220968
0.0064430566
0.089531546
0.24168716
0.35056461
0.41180612
0.43879683
0.44344962
0.42855766
0.38616034
0.30229377
0.1682852
0.027415256
0.0068690828
0.094036612
0.22182412
0.30922602
0.35692318
0.37737579
0.38084988
0.3696793
0.33713442
0.27081951
0.16131423
0.033792631
0.0078105729
0.096053973
0.20388907
0.2753232
0.3136145
0.32987383
0.33262642
0.32377179
0.29779332
0.24413419
0.15348999
0.039953931
0.0094838953
0.096288933
0.18803698
0.24730676
0.27888611
0.29233852
0.29462775
0.28728299
0.26584064
0.22152048
0.145612
0.04530718
0.01201929
0.095492615
0.17434558
0.22456951
0.25173237
0.2636022
0.26566141
0.25910615
0.24043732
0.20267663
0.13828362
0.049057102
0.019653522
0.019650696
0.019650616
0.019650577
0.019650554
0.019650549
0.019650561
0.019650589
0.019650639
0.019650799
0.019658584
0.016705399
0.016684387
0.016676938
0.016673501
0.016671793
0.016671455
0.016672471
0.016674939
0.016679826
0.016692168
0.016997406
0.014666654
0.014653727
0.014641746
0.014633458
0.014628561
0.014627542
0.014630567
0.014637201
0.014647198
0.014660692
0.014890588
0.013056119
0.013046031
0.013031417
0.013017543
0.01300843
0.013006499
0.013012231
0.013024122
0.01303902
0.013051851
0.013235862
0.01176229
0.011749666
0.011730438
0.011710504
0.011697722
0.011695731
0.011702841
0.011720219
0.011740598
0.011756919
0.011909553
0.010710313
0.010694828
0.010673443
0.010651503
0.010655686
0.010677603
0.010648996
0.010662987
0.01068426
0.010703459
0.010831638
0.0098553841
0.0098461552
0.0098536946
0.0097855095
0.010010481
0.010197944
0.0098532251
0.0098677781
0.0098438749
0.0098501355
0.0099528368
0.0091766496
0.0092085584
0.0093777367
0.022005313
0.10601751
0.14271275
0.055430284
0.011005254
0.0092502857
0.0091848716
0.0092466666
0.0086699688
0.0087972934
0.038799237
0.40085491
0.83532886
0.93926443
0.63957948
0.16837812
0.010277719
0.0087271188
0.0087010222
0.0083215474
0.014156691
0.32027164
0.95402951
1.4740712
1.592054
1.244112
0.62880359
0.088377124
0.0085202826
0.0082993343
0.0080827641
0.076831744
0.56193956
1.1320599
1.6550481
1.8349051
1.532084
0.84474153
0.28438937
0.012496905
0.0079817255
0.0088681526
0.17058656
0.60894443
1.0280697
1.4810929
1.7105185
1.4198105
0.82097975
0.38497952
0.035216847
0.0076931963
0.012470729
0.22397756
0.58481044
0.91679077
1.1949805
1.2629042
1.0666489
0.75211712
0.4058346
0.068579053
0.0075994399
0.019890882
0.24423859
0.53693566
0.77592475
0.93779748
0.97337581
0.867805
0.66277342
0.39490884
0.098779179
0.0080070627
0.030131821
0.24679783
0.47872963
0.64557724
0.74147661
0.76081437
0.7019625
0.56995135
0.36918303
0.11967639
0.0094404957
0.041356441
0.23949704
0.4213759
0.53982559
0.60066022
0.6121658
0.57643146
0.48784833
0.33755234
0.13168998
0.012440952
0.052004145
0.22714945
0.3702928
0.45727789
0.49885388
0.5063919
0.4826577
0.41993433
0.30553861
0.13717085
0.017256828
0.061350631
0.21280469
0.32678059
0.39301102
0.42334373
0.42870739
0.41168484
0.36496368
0.27588418
0.13809935
0.023560364
0.068794227
0.1982264
0.2903825
0.34244827
0.36572443
0.36979155
0.35684138
0.32058425
0.24958385
0.13603506
0.030430016
0.073894317
0.1844101
0.26009435
0.30205369
0.32062545
0.32386
0.31355729
0.2845103
0.2268055
0.13223517
0.036913599
0.077054454
0.17191117
0.23478488
0.26936026
0.28467866
0.28735504
0.27884585
0.25491403
0.20724841
0.12775373
0.042422342
0.079328093
0.16099201
0.21398188
0.24347841
0.25680645
0.25916827
0.25170257
0.23108858
0.19073524
0.12356368
0.046905876
0.019662229
0.01965084
0.019650644
0.019650604
0.019650582
0.019650578
0.019650589
0.019650618
0.01965067
0.019651303
0.019676765
0.016998333
0.016691081
0.016680368
0.016676097
0.016674222
0.016673871
0.016674941
0.016677779
0.016684281
0.016702464
0.017002561
0.014890814
0.014660118
0.014648177
0.014639958
0.014635326
0.014634377
0.014637196
0.014643576
0.014653753
0.014665858
0.014890671
0.013236441
0.013051538
0.013040289
0.01302865
0.013020845
0.013019161
0.013024105
0.013034238
0.013046242
0.013055884
0.013236254
0.011910373
0.011756669
0.011742318
0.011726677
0.011715393
0.01171281
0.011720191
0.011734361
0.011750089
0.011762246
0.011910917
0.010832201
0.010703356
0.010686301
0.010670059
0.01065779
0.010652486
0.010662959
0.010677644
0.010695458
0.010710582
0.010833907
0.0099518964
0.0098506772
0.0098438696
0.009871949
0.0098555181
0.0097683175
0.0098677951
0.0098488667
0.009846682
0.0098566753
0.0099550174
0.0092416698
0.0091870625
0.0092445808
0.0096074044
0.014561259
0.01802476
0.011016544
0.0092629183
0.0092082816
0.0091805521
0.0092456766
0.0086880527
0.0087328159
0.0095228333
0.067913025
0.27657717
0.33979318
0.1688404
0.018030128
0.0087868927
0.008679177
0.0086898428
0.0082732456
0.0085447517
0.059833764
0.42965589
0.78955331
0.87302807
0.6293936
0.21462367
0.012484866
0.0083391871
0.0082665394
0.0079499216
0.012591722
0.23825724
0.66722854
0.98316973
1.0575163
0.84526899
0.45390384
0.066178887
0.0081434472
0.0079282708
0.0076481073
0.036918885
0.34691751
0.68968741
0.92476101
1.0581715
0.8215065
0.52576237
0.16127048
0.0091931663
0.0076090284
0.0073597924
0.074962421
0.37584672
0.64875987
0.83227397
0.87346853
0.75260157
0.51931133
0.21785296
0.014011538
0.0072820849
0.0072449626
0.10853183
0.37109821
0.58613668
0.71930972
0.74733089
0.66318131
0.48610645
0.24007551
0.023841325
0.0069765844
0.0075158724
0.13000431
0.35052671
0.51521146
0.60848902
0.62707533
0.57025884
0.44049484
0.24375103
0.037084193
0.0067321509
0.008588797
0.14138897
0.32300762
0.44840178
0.51469325
0.52739858
0.48807171
0.39270592
0.23719907
0.050862356
0.0066492305
0.011000159
0.14583943
0.2941149
0.39069079
0.43938832
0.44848616
0.42009955
0.3484532
0.22537051
0.063018098
0.0068624818
0.015239327
0.14558787
0.26677795
0.34256719
0.37964949
0.38647161
0.36509005
0.30976582
0.21136467
0.072935303
0.0076658699
0.020907682
0.14242378
0.2422099
0.30291633
0.33206299
0.33737595
0.32068452
0.27682377
0.19703153
0.079869301
0.0094150926
0.027140868
0.13771575
0.22077505
0.2702562
0.29372562
0.29798692
0.28459259
0.24909818
0.18344287
0.08401601
0.012328177
0.033112511
0.13259926
0.20230727
0.24317866
0.26249274
0.26600036
0.25498352
0.22574103
0.17119993
0.086222455
0.016282443
0.038449998
0.12797839
0.18665747
0.22111064
0.23756373
0.24057441
0.23114969
0.20637038
0.16053082
0.087914355
0.020686478
0.019688023
0.019653447
0.019650724
0.019650653
0.019650631
0.019650627
0.019650639
0.01965067
0.019650854
0.019656676
0.017005895
0.016709804
0.016688718
0.016681584
0.016678833
0.01667836
0.016679836
0.016684283
0.016693242
0.016996592
0.014891527
0.014669389
0.014658101
0.014650031
0.014645331
0.014644377
0.014647203
0.014653752
0.014661054
0.014891954
0.013236869
0.013058293
0.01304992
0.013042353
0.013036521
0.013035194
0.013039013
0.013046246
0.013052264
0.013237469
0.011911346
0.011764686
0.011754849
0.011744961
0.011737224
0.011735455
0.011740575
0.011750087
0.011758343
0.011910566
0.010833891
0.010713537
0.010701407
0.010689283
0.010680452
0.010678533
0.01068423
0.010695453
0.010705967
0.010831182
0.0099537078
0.0098598461
0.009849957
0.009844392
0.0098441893
0.0098464696
0.0098439091
0.0098467033
0.0098520441
0.0099493494
0.0092409624
0.0091816615
0.0091919411
0.0092420373
0.0092005706
0.0092442313
0.0092505468
0.0092083848
0.0091792779
0.0092376327
0.0086776653
0.008670034
0.0087532982
0.0090605269
0.013402597
0.017436672
0.010291164
0.0087873231
0.0086906212
0.0086840563
0.0082418321
0.0083054585
0.0087551651
0.036970826
0.15296007
0.19269059
0.088629127
0.0124907
0.0083543829
0.0082721853
0.0078893204
0.0080089979
0.017402314
0.17266184
0.37633952
0.42362244
0.28471263
0.066118977
0.0087075329
0.0079554205
0.0075628198
0.0079385401
0.056324914
0.28417373
0.46136915
0.49865495
0.38527388
0.16109153
0.013212455
0.0076702634
0.0072347336
0.0087907392
0.10770425
0.32363133
0.46686245
0.4966661
0.40613353
0.21769474
0.027910877
0.0074394877
0.0069163694
0.011836574
0.14263637
0.32812607
0.44377058
0.46750726
0.39520549
0.23994558
0.04961463
0.0074557569
0.0066229244
0.018172671
0.16083921
0.31583994
0.40741396
0.42577812
0.36946046
0.24365803
0.072000726
0.0080645207
0.0063613696
0.027469914
0.16809948
0.29542355
0.3671873
0.38128097
0.33779556
0.23714171
0.08923113
0.010034198
0.0061342294
0.038042324
0.16835031
0.27220979
0.32865942
0.33957091
0.30574815
0.22534421
0.10050054
0.014217878
0.0060119165
0.048157437
0.16436378
0.24924198
0.29418203
0.30277551
0.27606528
0.21136166
0.10686948
0.020968646
0.0060549546
0.056858461
0.15811377
0.22798379
0.26431112
0.27120919
0.24974203
0.19704338
0.10960474
0.028994775
0.0064271875
0.063663843
0.15093248
0.20904949
0.23883562
0.24445523
0.22694553
0.18346504
0.10985702
0.036840082
0.0073811447
0.068400494
0.14383514
0.19254482
0.21716587
0.22178972
0.20737355
0.17122761
0.10878934
0.043568337
0.009190691
0.072124217
0.13750136
0.17842901
0.19903737
0.20290779
0.19084903
0.16056119
0.10758183
0.049076542
0.019681006
0.019654031
0.019650986
0.019650779
0.019650776
0.019650799
0.019651303
0.019656669
0.019677696
0.017002992
0.01671201
0.016693101
0.016689975
0.016688786
0.01669218
0.016702467
0.016996518
0.017003747
0.014889737
0.014669167
0.014659602
0.014659032
0.014657858
0.014660703
0.014665866
0.014891928
0.014890003
0.013234756
0.013057693
0.013050384
0.01305057
0.013049607
0.013051852
0.013055892
0.01323745
0.01323488
0.011909127
0.011764154
0.011756235
0.011755253
0.011754137
0.011756906
0.011762254
0.011910556
0.011909023
0.010831741
0.010713001
0.010703618
0.010701305
0.010700133
0.010703433
0.010710592
0.010831187
0.010831135
0.0099517185
0.0098586044
0.0098494964
0.0098488461
0.00984868
0.0098501379
0.0098567166
0.0099493731
0.0099498959
0.009239164
0.0091779222
0.0091769196
0.0091916735
0.0091959027
0.0091850309
0.0091806767
0.0092376994
0.0092345881
0.0086760366
0.008660641
0.0086896461
0.0087442227
0.0087591322
0.0087275204
0.0086794465
0.0086841905
0.0086662085
0.0082403183
0.0082862498
0.0083490209
0.0089635946
0.0094387547
0.0085226242
0.0083395664
0.0082723773
0.0082228745
0.0078879563
0.0079831731
0.0091435868
0.020524363
0.027099507
0.012515988
0.0081437966
0.0079556218
0.0078636178
0.0075615931
0.0077771188
0.016751243
0.059822572
0.075651353
0.035229377
0.0091877497
0.0076703167
0.0075357489
0.0072329726
0.008119714
0.035163067
0.10419388
0.12433816
0.068538851
0.013974272
0.0074389922
0.0072114325
0.0069135257
0.009811813
0.057306431
0.13534905
0.15466514
0.098788472
0.023750317
0.0074538586
0.0068975314
0.0066205695
0.013764947
0.078231194
0.15285267
0.16992025
0.11975082
0.036957051
0.0080593956
0.0066062278
0.0063617966
0.020243586
0.094131063
0.16053663
0.17508217
0.13180172
0.050738292
0.010021512
0.0063450087
0.0061623046
0.028464072
0.1043359
0.16174227
0.17389767
0.13730733
0.062928819
0.01419309
0.0061289371
0.0060913161
0.037229897
0.10990334
0.15879459
0.1688862
0.13825112
0.072883846
0.020931237
0.0059829818
0.0062578988
0.045465473
0.11204811
0.15342669
0.16182771
0.13619164
0.079847193
0.028954518
0.0060029476
0.0069155515
0.052625938
0.11182978
0.14688981
0.15393064
0.13239012
0.084012144
0.036805755
0.0062915917
0.0083767082
0.058253072
0.11032574
0.1401085
0.14599246
0.12790363
0.086233467
0.043545326
0.0070553122
0.010821816
0.062772
0.10881366
0.13382393
0.13861471
0.12370783
0.087931291
0.049060491
0.0085508419
0.019676314
0.019669572
0.019657059
0.019654765
0.019658583
0.019676765
0.017008323
0.017002071
0.016995855
0.016715299
0.016997418
0.017002619
0.014893998
0.014891899
0.014890551
0.014669697
0.014890603
0.014890773
0.013238266
0.013237504
0.013236164
0.013057822
0.013235866
0.01323638
0.011911873
0.011911928
0.011910062
0.011763927
0.011909541
0.011911052
0.010833507
0.010835044
0.010832649
0.010711836
0.0108316
0.010834047
0.0099518574
0.0099574852
0.009955363
0.0098550695
0.0099527833
0.0099551708
0.009236367
0.0092520963
0.0092529208
0.0091693437
0.0092466772
0.009245901
0.0086684515
0.0087045948
0.00871459
0.0086435602
0.0087012478
0.0086902245
0.0082267021
0.0082944369
0.008321136
0.0082565413
0.0082998803
0.0082671198
0.0078697298
0.0079668087
0.0080123313
0.0079437569
0.0079824899
0.0079289083
0.0075433958
0.007654219
0.0077950113
0.0077084065
0.0076941517
0.0076095107
0.0072194987
0.0073427137
0.008002062
0.007958284
0.0076007452
0.007282354
0.006905623
0.0071818952
0.0092430867
0.0092129809
0.0080085091
0.0069767726
0.0066150808
0.0073158533
0.012092827
0.011831459
0.0094442735
0.0067317797
0.0063519772
0.0079949724
0.016680833
0.015973124
0.012453682
0.0066476131
0.0061280353
0.0094961324
0.022901172
0.021443214
0.017289375
0.0068579831
0.0059622611
0.011985616
0.030154688
0.027689263
0.023620878
0.0076565724
0.005938399
0.015493813
0.037358509
0.034100351
0.030520218
0.0094014359
0.0061695559
0.01987599
0.043694567
0.040282777
0.037026679
0.012314022
0.0068854469
0.024622711
0.048791198
0.04563691
0.042548856
0.016275151
0.008430039
0.029216041
0.052674315
0.049374632
0.04704012
0.020691361
0.019676314
0.019676765
0.017632654
0.017624085
0.019669572
0.019658583
0.017621295
0.017611773
0.019687546
0.017639055
0.017634991
0.019657058
0.019654765
0.017609388
0.017940145
0.019677408
0.01763507
0.017639051
0.019654763
0.019657059
0.017940136
0.017609381
0.019658583
0.019669572
0.017611782
0.017621293
0.019676765
0.019676314