/*--------------------------------*- C++ -*----------------------------------*\
| =========                 |                                                 |
| \\      /  F ield         | OpenFOAM: The Open Source CFD Toolbox           |
|  \\    /   O peration     | Version:  2406                                  |
|   \\  /    A nd           | Website:  www.openfoam.com                      |
|    \\/     M anipulation  |                                                 |
\*---------------------------------------------------------------------------*/
FoamFile
{
    version     2.0;
    format      ascii;
    arch        "LSB;label=32;scalar=64";
    class       volScalarField;
    location    "200";
    object      nut;
}
// * * * * * * * * * * * * * * * * * * * * * * * * * * * * * * * * * * * * * //

dimensions      [0 2 -1 0 0 0 0];

internalField   nonuniform List<scalar> 
71615
(
0.0019974601
0.0019974125
0.0019737706
0.0019736066
0.0019523826
0.0019522788
0.0019337234
0.0019336691
0.0019173424
0.0019173347
0.0019031482
0.0019032159
0.0018915252
0.0018917635
0.0018835432
0.0018841862
0.0018808073
0.0018823015
0.0018840392
0.0018869529
0.0018904928
0.001894953
0.0018943426
0.0018993515
0.0018926856
0.001897145
0.0018879164
0.0018921985
0.0018832608
0.0018911359
0.0018819098
0.0018980944
0.001891457
0.0019390256
0.0019256027
0.0020347013
0.0020196861
0.0022310669
0.0022212105
0.002573889
0.0026168476
0.0031259683
0.0033045608
0.0039148274
0.0019973547
0.0019971704
0.0019971273
0.0019971201
0.0019971316
0.0019972054
0.0019974284
0.001973602
0.0019708407
0.001970753
0.001970728
0.0019707863
0.001973513
0.001973611
0.0019523118
0.0019499239
0.0019499013
0.0019498928
0.0019499138
0.0019522842
0.0019523116
0.001933702
0.0019315554
0.0019315555
0.0019315487
0.0019315595
0.0019336858
0.0019337063
0.0019173682
0.0019154924
0.0019155102
0.0019154919
0.0019155046
0.0019173539
0.0019173739
0.0019032534
0.0019018227
0.0019019177
0.0019018776
0.0019018729
0.0019032513
0.0019032541
0.0018917944
0.001891321
0.0018917375
0.0018916778
0.0018915388
0.0018918832
0.0018917744
0.0018841257
0.0018858138
0.001887285
0.0018872333
0.0018866148
0.0018846028
0.0018840432
0.001881866
0.0018879984
0.0018918759
0.0018919943
0.0018906196
0.0018835631
0.001881625
0.0018855939
0.0018983281
0.0019027705
0.0019009324
0.0019064423
0.0018899327
0.0018850416
0.0018923002
0.0019066709
0.0019916931
0.0020566014
0.0019271165
0.0019004404
0.0018913224
0.0018959352
0.0019639024
0.0025972061
0.0029815779
0.0021878718
0.0019081345
0.0018946844
0.0018936608
0.0022345242
0.0043937239
0.00543404
0.0030747781
0.0019152326
0.0018923803
0.0018886578
0.0029201779
0.0069715105
0.0082694434
0.0048130297
0.0019616915
0.0018868944
0.0018839306
0.0041503735
0.0094566796
0.010814655
0.0069957046
0.002107615
0.0018815598
0.0018885039
0.0057951724
0.011562411
0.013184825
0.0090634923
0.0024561694
0.0018787375
0.001920233
0.0075196907
0.013493776
0.01526471
0.010861855
0.0031181657
0.0018804439
0.002002669
0.0090947747
0.015307288
0.017052268
0.012544573
0.0041328735
0.0019088555
0.0021727993
0.010557132
0.016904182
0.018600944
0.014165768
0.0053682238
0.0019848468
0.0024934141
0.012022338
0.018289011
0.019869703
0.015620497
0.0067047891
0.0021521207
0.003017419
0.013414774
0.019461819
0.020894461
0.016926578
0.0080754148
0.0024794798
0.0037433103
0.014808655
0.020473895
0.021705574
0.018198258
0.0094496275
0.003039379
0.0019972954
0.0019971189
0.0019971084
0.001997108
0.0019971081
0.0019971081
0.0019971091
0.0019971302
0.001997362
0.0019735333
0.0019707049
0.0019706158
0.0019705813
0.0019705753
0.0019705943
0.0019706561
0.0019708154
0.0019735558
0.0019522645
0.0019498912
0.0019498257
0.0019497814
0.0019497709
0.0019498008
0.0019498627
0.0019499168
0.0019522597
0.0019336681
0.0019315595
0.0019315162
0.0019314853
0.0019314761
0.0019315001
0.0019315408
0.0019315599
0.0019336491
0.0019173618
0.0019155189
0.0019155237
0.0019155342
0.0019155347
0.00191553
0.0019155222
0.0019155283
0.0019173173
0.0019033195
0.0019019443
0.0019022187
0.0019024597
0.0019025256
0.0019023499
0.0019020756
0.0019019524
0.0019032023
0.0018920481
0.0018918386
0.0018932432
0.0018943986
0.0018948597
0.0018938847
0.0018924963
0.0018916983
0.0018917292
0.001884806
0.0018876324
0.0018932184
0.0018981257
0.0019018682
0.001895333
0.0018900691
0.0018867499
0.0018840021
0.0018833441
0.0018935576
0.0019046784
0.0019504997
0.0019718793
0.0019099472
0.0019016993
0.0018898843
0.0018815773
0.0018882589
0.0019081155
0.0021781096
0.0049864237
0.0065847921
0.0029794017
0.0019412527
0.0019020123
0.0018849667
0.0018963018
0.0020130387
0.0064768179
0.017780894
0.0211461
0.012231877
0.0028126576
0.0019142793
0.0018912024
0.0019008289
0.0027729805
0.014615132
0.029528287
0.033125788
0.023052217
0.0071283843
0.00197206
0.0018945059
0.0018990157
0.005112926
0.021466085
0.036128148
0.039389965
0.030059654
0.012278452
0.0022461405
0.0018920607
0.0018972725
0.0080436765
0.026103605
0.039323654
0.04216295
0.033954033
0.016751125
0.0030122963
0.0018863961
0.0019042473
0.010994775
0.028935129
0.040621022
0.04309013
0.035917294
0.020298032
0.0044856044
0.0018812288
0.0019505239
0.01377374
0.03064449
0.040967517
0.04312159
0.036828994
0.022879039
0.0064347156
0.0018795372
0.0020820777
0.016247889
0.031673804
0.040826266
0.04271357
0.037171329
0.024678832
0.0083661537
0.0018881485
0.0023752932
0.018288784
0.032281147
0.040426472
0.042090141
0.037184259
0.025950736
0.010111981
0.0019298837
0.0028985848
0.019862931
0.032607926
0.039902652
0.041385358
0.037002341
0.026855929
0.011781471
0.0020375203
0.0036996863
0.021089605
0.032767863
0.039350678
0.040684179
0.03673313
0.027533175
0.013425539
0.0022677998
0.004727127
0.022102057
0.032876222
0.038834848
0.040031932
0.036470924
0.028093345
0.014952336
0.0027038416
0.0059077715
0.023159727
0.033045742
0.038416937
0.039486063
0.036290151
0.028690906
0.016442947
0.003363164
0.0019973545
0.0019971188
0.0019971078
0.0019971077
0.0019971076
0.0019971076
0.0019971076
0.0019971078
0.0019971082
0.0019971349
0.0019973847
0.0019736006
0.0019707045
0.0019705867
0.0019705387
0.00197052
0.0019705168
0.0019705273
0.0019705576
0.001970633
0.0019708384
0.0019736679
0.0019523108
0.001949891
0.0019497912
0.0019497131
0.0019496741
0.0019496669
0.0019496898
0.0019497472
0.0019498412
0.0019499175
0.001952333
0.0019337019
0.001931559
0.0019314931
0.0019314302
0.0019313995
0.0019313947
0.0019314112
0.0019314597
0.0019315265
0.0019315537
0.0019336964
0.0019173692
0.0019155178
0.0019155301
0.0019155989
0.0019157043
0.0019157287
0.0019156537
0.0019155566
0.001915524
0.0019155088
0.0019173357
0.0019032544
0.0019019422
0.0019023863
0.00190318
0.0019040461
0.0019041192
0.0019036469
0.001902733
0.0019021513
0.0019018854
0.0019031619
0.0018917943
0.0018918369
0.0018940873
0.0018982047
0.0019051893
0.0019043015
0.0019013359
0.0018957689
0.0018928499
0.0018914836
0.0018915495
0.001884126
0.0018876366
0.0018965252
0.001899395
0.0020014338
0.0020621169
0.0019289138
0.001903004
0.0018912652
0.001886151
0.0018835196
0.0018818756
0.0018935667
0.0019156231
0.0030146666
0.01130751
0.014398935
0.0067726511
0.0020534415
0.0019050618
0.0018884785
0.0018805438
0.0018856287
0.0019075947
0.0030374764
0.022038583
0.045887654
0.051679984
0.03535524
0.0095469353
0.0019930303
0.0018991724
0.0018831784
0.0018923795
0.0020151877
0.012661974
0.045574217
0.070332903
0.075754597
0.060084044
0.028571967
0.0036757713
0.0019119355
0.0018887794
0.0018960609
0.0027862269
0.024441459
0.056886655
0.077069862
0.081210545
0.068866922
0.041672706
0.0094904885
0.001935828
0.0018920155
0.0018938213
0.0051551771
0.031946304
0.06010953
0.076852633
0.080348052
0.070077436
0.047296581
0.015868597
0.0020983826
0.0018901459
0.0018888631
0.0080982401
0.035813986
0.060089159
0.074188262
0.077090098
0.068513173
0.049125574
0.020807248
0.0025648421
0.0018851819
0.0018840591
0.011066346
0.037618195
0.058621789
0.070495988
0.072899346
0.065748478
0.049215225
0.024181674
0.0035603558
0.0018801472
0.0018892921
0.013845476
0.038357001
0.056596031
0.066688805
0.068708155
0.062672388
0.048482239
0.02637632
0.0050872167
0.0018765983
0.0019220365
0.016316147
0.038517833
0.054471917
0.063180134
0.064910274
0.059723083
0.047406315
0.027856915
0.0068383175
0.0018789876
0.0020069934
0.018347387
0.038373104
0.052458233
0.060088798
0.061598634
0.057062295
0.046235365
0.028867645
0.0084809523
0.0018941969
0.0021816556
0.019913241
0.038076522
0.050637699
0.057414174
0.058751233
0.054727119
0.045093984
0.029540622
0.01000434
0.0019467007
0.0025100051
0.021130244
0.037729682
0.04904004
0.055112825
0.056307871
0.052705323
0.044055299
0.029990387
0.011509169
0.0020719084
0.0030436402
0.02214135
0.037414958
0.047648383
0.053127488
0.054204812
0.050954264
0.043143984
0.030354698
0.012984103
0.0023366612
0.0037780781
0.023193286
0.037195877
0.046509065
0.051517595
0.05250427
0.049527151
0.042403969
0.030768318
0.014459452
0.0028283857
0.0019971704
0.0019971084
0.0019971077
0.0019971074
0.0019971071
0.001997107
0.0019971072
0.0019971075
0.0019971078
0.0019971105
0.0019972663
0.0019708406
0.0019706155
0.0019705383
0.0019705056
0.0019704898
0.0019704867
0.0019704964
0.0019705195
0.0019705681
0.0019706784
0.0019735546
0.0019499236
0.0019498248
0.0019497122
0.0019496451
0.0019496134
0.0019496079
0.0019496261
0.0019496742
0.0019497638
0.0019498654
0.0019523072
0.0019315539
0.001931514
0.0019314286
0.0019313851
0.001931394
0.0019314019
0.0019313862
0.0019313997
0.0019314716
0.001931533
0.001933719
0.0019154889
0.0019155196
0.0019155964
0.0019158423
0.0019161792
0.0019163064
0.0019160001
0.0019157046
0.0019155401
0.0019154931
0.001917427
0.0019018164
0.0019022133
0.0019031787
0.0019047903
0.0019066824
0.0019079561
0.0019052798
0.0019040972
0.0019025732
0.0019019355
0.001903441
0.0018913146
0.0018932414
0.0018982231
0.0019055425
0.0019016459
0.0019084281
0.001889874
0.0019063702
0.0018950454
0.0018919229
0.0018923529
0.0018858194
0.0018932165
0.0018997196
0.0024528897
0.0071693594
0.0092909725
0.0041979442
0.0019863647
0.0019027701
0.001888012
0.0018856188
0.0018880537
0.0019043864
0.0030375041
0.025270471
0.054070567
0.060969528
0.041337237
0.01027662
0.0019725297
0.0018942977
0.0018853278
0.0018984801
0.0021860017
0.022224127
0.068519239
0.10324143
0.11096112
0.088598869
0.044989472
0.0067033777
0.0019073876
0.0018922926
0.0019068065
0.0065989895
0.04578743
0.091004559
0.12143801
0.12838671
0.1085731
0.069652884
0.022127334
0.0021504574
0.0019021278
0.0019674857
0.014820488
0.057042155
0.093413366
0.11098485
0.11895004
0.10606357
0.076601944
0.034878825
0.0037302406
0.0019085613
0.0022491588
0.02168685
0.060224216
0.090510991
0.11010046
0.11453574
0.10179943
0.076541595
0.041320725
0.0071008873
0.0019110881
0.0029596164
0.026294003
0.060180441
0.085477557
0.10062151
0.1038163
0.094392646
0.073970323
0.04392581
0.010375861
0.0019450227
0.0042219273
0.029096196
0.058696617
0.0797856
0.091675137
0.094078646
0.086877201
0.07032973
0.044683157
0.013438438
0.0020520217
0.0058884498
0.030785872
0.056657985
0.074454356
0.084145366
0.086062769
0.08027303
0.066551411
0.044543118
0.016115343
0.0022978194
0.0076162644
0.031797016
0.054523573
0.069811246
0.077991285
0.079594485
0.0747373
0.06305944
0.04396494
0.018384107
0.0027559705
0.0091891031
0.032385009
0.052501452
0.065866397
0.0729629
0.074348343
0.070144965
0.059979368
0.043203005
0.020203107
0.0034354357
0.010654836
0.032695095
0.050673907
0.062534561
0.068809409
0.07003249
0.066319381
0.057317388
0.042392804
0.02159747
0.0042791356
0.012120698
0.032841638
0.049070854
0.059707181
0.065330249
0.066426737
0.063098154
0.055032748
0.041619561
0.022663294
0.0052690732
0.013510007
0.032940326
0.047674721
0.057298421
0.062399981
0.063396456
0.060372887
0.053067025
0.040933038
0.023528187
0.0063480366
0.014900886
0.033101381
0.046531896
0.055373894
0.060103013
0.061030584
0.058219662
0.051475348
0.04038294
0.024454376
0.0074778984
0.0019974557
0.0019971273
0.001997108
0.0019971076
0.0019971071
0.0019971065
0.0019971063
0.0019971067
0.0019971073
0.0019971077
0.0019971086
0.0019971623
0.0019737653
0.0019707529
0.0019705807
0.0019705191
0.0019704893
0.0019704729
0.0019704696
0.0019704799
0.0019705026
0.0019705433
0.0019706453
0.0019734861
0.0019523791
0.0019499006
0.0019497799
0.0019496722
0.0019496124
0.0019495869
0.0019495828
0.0019495968
0.0019496382
0.0019497196
0.0019498506
0.0019522796
0.0019337201
0.0019315533
0.0019314821
0.0019313961
0.0019313923
0.0019314553
0.0019314748
0.0019314225
0.0019313833
0.0019314335
0.001931529
0.0019336928
0.0019173385
0.0019155051
0.0019155286
0.0019156997
0.001916178
0.0019169913
0.0019171586
0.001916591
0.0019158879
0.0019155805
0.0019155077
0.0019174035
0.0019031423
0.0019019099
0.0019024555
0.0019040442
0.0019066928
0.0019161145
0.0019170282
0.0019109366
0.00190495
0.0019030583
0.0019020828
0.0019034505
0.0018915174
0.0018917321
0.0018944511
0.0019051785
0.0019017969
0.0020610888
0.0021742864
0.0019608319
0.0019015613
0.0018975343
0.0018926764
0.0018925144
0.0018835403
0.0018872838
0.0018994075
0.0020037743
0.0072148685
0.023472715
0.028749407
0.014820265
0.0029017234
0.0018917408
0.0018915259
0.0018862823
0.0018808303
0.0018920183
0.001951117
0.011461692
0.054278909
0.091846442
0.10023694
0.075653693
0.030899745
0.0027359091
0.0019049813
0.0018873211
0.0018841231
0.0019025031
0.0051181959
0.04632783
0.10364566
0.1437835
0.15201238
0.12695524
0.075617915
0.020018019
0.0020379266
0.0018965471
0.0018906567
0.0019969078
0.018062505
0.070637015
0.11270971
0.15230885
0.16315556
0.14433102
0.096949293
0.042434043
0.0042880492
0.0019099062
0.0018945596
0.0026251868
0.029800975
0.077261286
0.11108347
0.14054395
0.1549166
0.13833143
0.098101163
0.053866361
0.010494321
0.0019364171
0.001892926
0.0044764309
0.036355106
0.076991625
0.11017309
0.13482598
0.14025935
0.12406089
0.094290533
0.057451722
0.016206154
0.0020613632
0.0018881786
0.0070860223
0.039511172
0.074302418
0.10067674
0.11740609
0.12098339
0.11040045
0.088489478
0.057750553
0.020465173
0.002433403
0.0018835441
0.0095709662
0.040781074
0.070591345
0.091718417
0.10382383
0.10628529
0.098897606
0.082199731
0.056599122
0.023558683
0.0031880345
0.0018824834
0.011674833
0.041105151
0.066769555
0.084180618
0.093648895
0.095518704
0.089853455
0.076447034
0.054850944
0.025746462
0.0042618696
0.0018927294
0.013612812
0.040944782
0.063249219
0.078020886
0.08587158
0.087402614
0.082744747
0.071506004
0.052961364
0.027239642
0.0055469654
0.0019290292
0.015424504
0.040529004
0.060148394
0.072988323
0.07975238
0.081066012
0.077065017
0.067342852
0.051137933
0.028233476
0.0069842429
0.0020269595
0.017015796
0.039992395
0.057466037
0.068831636
0.074802936
0.07596248
0.072431602
0.063841907
0.049463213
0.028903024
0.0084622311
0.0022366146
0.018393926
0.039429816
0.055158453
0.065349993
0.070711424
0.071753949
0.068581433
0.060876446
0.0479723
0.029362688
0.0099048766
0.0026472199
0.019558865
0.038905047
0.053168084
0.062417796
0.06730423
0.068256791
0.065360883
0.05835388
0.046659262
0.029711874
0.011258864
0.0033549297
0.020562466
0.038479688
0.051554316
0.060119459
0.064688622
0.065583555
0.062867419
0.056344966
0.045576949
0.030054338
0.012500552
0.0019974149
0.0019971201
0.0019971081
0.0019971075
0.001997107
0.0019971063
0.001997106
0.0019971065
0.0019971072
0.0019971077
0.0019971086
0.0019971405
0.0019736061
0.0019707279
0.0019705745
0.0019705155
0.0019704859
0.0019704693
0.0019704658
0.0019704763
0.0019704993
0.0019705389
0.0019706335
0.001970869
0.0019522787
0.0019498922
0.0019497691
0.0019496643
0.0019496061
0.0019495821
0.0019495784
0.0019495915
0.0019496311
0.0019497104
0.0019498378
0.0019499183
0.0019336688
0.0019315465
0.0019314724
0.0019313903
0.0019313992
0.001931474
0.0019314953
0.0019314391
0.0019313824
0.001931425
0.001931521
0.0019315378
0.0019173332
0.0019154868
0.0019155286
0.0019157236
0.0019163055
0.0019171589
0.0019173069
0.0019168468
0.0019159303
0.0019155927
0.0019155116
0.0019154515
0.0019032112
0.0019018703
0.001902521
0.0019041234
0.0019079825
0.0019170167
0.0019169659
0.0019154736
0.001904813
0.0019031911
0.0019021419
0.0019017129
0.0018917595
0.001891676
0.0018948808
0.0019043445
0.0019090238
0.0021770073
0.002361011
0.0019888961
0.0018875308
0.0018984926
0.0018929516
0.0018910186
0.0018841931
0.0018872616
0.0019020135
0.0020671547
0.0093907299
0.028858073
0.034446067
0.018573308
0.0035418974
0.0019013948
0.0018925011
0.0018850381
0.0018823489
0.0018920797
0.0019751518
0.014653954
0.061316626
0.10042595
0.10896805
0.083697479
0.036509625
0.0034559227
0.001907324
0.0018862042
0.0018870775
0.0019015083
0.0067409555
0.052166958
0.11152682
0.15225937
0.15991581
0.13537897
0.082620831
0.024153314
0.0021348444
0.0018952404
0.0018951529
0.0020625133
0.02139497
0.076091954
0.12272467
0.1633787
0.16925647
0.15650849
0.10315312
0.047240714
0.0055084582
0.0019072194
0.0018995647
0.0030143261
0.033327285
0.081376056
0.11912649
0.1550786
0.16056401
0.15355262
0.10870629
0.057916707
0.012614761
0.0019264853
0.0018973476
0.0055015545
0.039558465
0.080493544
0.11470225
0.14040349
0.1453627
0.1293452
0.098140014
0.060838421
0.018774248
0.0020734004
0.0018924483
0.008349534
0.042304999
0.07721578
0.10393295
0.12106366
0.12466122
0.11387071
0.091527687
0.060638381
0.023020725
0.0024638384
0.0018913618
0.010902567
0.043214136
0.073004423
0.094161525
0.10633332
0.10880158
0.10136707
0.084618226
0.059059846
0.025942184
0.0031966127
0.0018990845
0.013279177
0.043231988
0.068796952
0.086126275
0.095552225
0.097411716
0.091769287
0.078433284
0.056960958
0.027889874
0.0042856068
0.0019414017
0.015360795
0.042812667
0.064987094
0.07964658
0.087428903
0.088944666
0.084328411
0.073188657
0.054790788
0.029164127
0.0056076142
0.0020398951
0.017148781
0.04217908
0.061666517
0.074393144
0.081088178
0.082387063
0.078428117
0.068804761
0.05274334
0.029961381
0.0069504173
0.0022411729
0.018695369
0.041466825
0.058812236
0.070072219
0.075981983
0.077128657
0.073634976
0.065134587
0.050888683
0.030476613
0.0082393821
0.0025920766
0.019959191
0.040759331
0.056363433
0.066462701
0.071771557
0.072803203
0.069662239
0.062033704
0.049248242
0.030801559
0.0095336363
0.0031556095
0.02097608
0.04010162
0.054256016
0.063429558
0.068273005
0.069216699
0.066346405
0.05940185
0.047805859
0.031013668
0.010814016
0.003957838
0.021783601
0.039551139
0.052552267
0.061061786
0.065598903
0.066487181
0.063790006
0.057313667
0.046616119
0.031194908
0.011918398
0.0019971316
0.001997108
0.0019971076
0.0019971072
0.0019971067
0.0019971065
0.0019971068
0.0019971074
0.0019971077
0.0019971087
0.0019971749
0.0019707862
0.0019705935
0.0019705262
0.0019704956
0.0019704794
0.0019704761
0.0019704862
0.0019705089
0.0019705519
0.0019706652
0.0019734995
0.0019499132
0.001949799
0.0019496875
0.0019496245
0.0019495959
0.001949591
0.001949607
0.0019496516
0.0019497362
0.0019498645
0.0019522718
0.0019315574
0.0019314966
0.0019314073
0.0019313839
0.0019314217
0.0019314389
0.0019313997
0.0019313866
0.0019314479
0.0019315343
0.0019336701
0.0019154996
0.0019155243
0.0019156493
0.0019160003
0.0019165941
0.0019168485
0.0019162826
0.0019158004
0.001915559
0.0019155011
0.0019173523
0.0019018655
0.0019023457
0.001903651
0.0019053086
0.0019109794
0.0019154798
0.0019075085
0.0019045973
0.0019028331
0.0019020171
0.0019033238
0.0018915369
0.0018939043
0.0019014152
0.0018902338
0.0019618275
0.0019895357
0.0019103853
0.0019059764
0.0018963895
0.0018923401
0.0018921871
0.0018866447
0.0018954809
0.0019308611
0.0042648434
0.014962988
0.018651516
0.0092044966
0.0022599968
0.0019040354
0.00188974
0.0018854852
0.0018907471
0.0019104854
0.0069280576
0.041743325
0.076002094
0.083854476
0.060893323
0.021237193
0.0022049359
0.0019014027
0.0018856088
0.001906694
0.0030271457
0.035815254
0.089181278
0.12739559
0.13556156
0.11108408
0.062763724
0.013383882
0.0019395946
0.0018939914
0.001928366
0.012420382
0.060493424
0.10909691
0.14488717
0.15671255
0.13677258
0.085853752
0.033840067
0.0028376701
0.0019055793
0.0021974213
0.023263187
0.069154627
0.10639223
0.1388478
0.15370922
0.13494642
0.089297173
0.046220884
0.0071259441
0.0019175993
0.0031057916
0.030244449
0.070288957
0.1020569
0.1243162
0.12943993
0.11452442
0.08708622
0.051051519
0.011976803
0.0019726671
0.0048686736
0.034111478
0.068681519
0.094571433
0.11054736
0.11393815
0.1038455
0.082679504
0.052282824
0.016083852
0.0021589235
0.0070657555
0.036050123
0.065885948
0.087007349
0.098993953
0.10141278
0.094107543
0.077509577
0.051911449
0.019308158
0.0026055489
0.0091352763
0.03694572
0.06278786
0.080374317
0.089924601
0.091803002
0.086088243
0.072567242
0.050811369
0.021830723
0.0034250948
0.01093538
0.037277428
0.059823126
0.074820903
0.082801861
0.0843554
0.079616664
0.06820782
0.04944394
0.023708739
0.0045699857
0.012625556
0.037282291
0.057151349
0.070216924
0.077113399
0.078450982
0.074368515
0.06447285
0.04804022
0.025061305
0.0059184114
0.014250419
0.037093586
0.054807962
0.066383103
0.072474013
0.073655091
0.07005172
0.061301332
0.046705592
0.026005481
0.0073366678
0.015706864
0.036818462
0.052779644
0.063155682
0.068619466
0.069680376
0.066446049
0.05860142
0.045496732
0.02670821
0.0087532973
0.017014012
0.036551262
0.051023232
0.060425638
0.065395621
0.066363075
0.063416679
0.056294383
0.044429622
0.02728078
0.010115756
0.018283178
0.036366487
0.049592086
0.058269089
0.062899969
0.063805748
0.061051946
0.054444079
0.043553247
0.02787911
0.011413568
0.0019972054
0.0019971091
0.0019971077
0.0019971075
0.0019971073
0.0019971072
0.0019971074
0.0019971076
0.0019971079
0.0019971125
0.0019973264
0.0019735126
0.0019706557
0.001970557
0.0019705191
0.0019705025
0.0019704994
0.0019705092
0.0019705342
0.0019705925
0.0019707565
0.0019735571
0.001952283
0.0019498615
0.0019497459
0.0019496735
0.0019496379
0.0019496313
0.0019496522
0.0019497046
0.0019497996
0.0019499038
0.0019522874
0.0019336831
0.001931538
0.0019314573
0.0019313986
0.0019313835
0.001931383
0.0019313875
0.0019314232
0.0019314998
0.0019315589
0.0019336999
0.0019173478
0.001915517
0.0019155535
0.0019157051
0.001915891
0.0019159335
0.0019158023
0.0019156149
0.0019155292
0.0019155221
0.0019173966
0.0019032407
0.0019020699
0.0019027347
0.0019041064
0.0019049667
0.0019048303
0.0019046029
0.0019033363
0.0019023415
0.0019019493
0.0019033466
0.0018918705
0.0018925024
0.0018958044
0.0019063702
0.0019015233
0.0018876487
0.0019059865
0.0018994311
0.0018938527
0.0018917873
0.0018920537
0.0018846038
0.0018901284
0.0019031332
0.0019894714
0.0029319892
0.0035654544
0.002262134
0.0019072408
0.0018955469
0.0018872778
0.0018847997
0.0018836193
0.0019018927
0.0020608826
0.010501199
0.031240765
0.036697419
0.021279508
0.0036196106
0.0019077307
0.0018921278
0.0018834394
0.0018900982
0.0019432305
0.0097797697
0.045520464
0.076095541
0.082855008
0.062809938
0.025893676
0.0027197756
0.0019087552
0.0018886921
0.0019007016
0.0028553564
0.028996241
0.070177023
0.097381475
0.10335699
0.085888116
0.050234061
0.010839326
0.0019393663
0.0018971711
0.0019085324
0.0072716959
0.042061776
0.077006375
0.098422106
0.10888521
0.089330508
0.060829699
0.021857114
0.0022645619
0.0019018337
0.0019161855
0.012455961
0.047607143
0.076857108
0.094542804
0.098267625
0.087115201
0.063413012
0.029355243
0.0034276719
0.001900273
0.0019644259
0.016944233
0.049378536
0.074218352
0.088680785
0.091629959
0.082705994
0.062906073
0.033466516
0.0056143147
0.0018989283
0.0021155759
0.020491284
0.049425995
0.070527515
0.082347672
0.084698919
0.077532399
0.061024277
0.035538179
0.0081697847
0.0019077882
0.0024743039
0.023054581
0.048661105
0.066713327
0.076565868
0.078498481
0.072586807
0.05865276
0.036525916
0.010422645
0.0019569333
0.0031516814
0.024836091
0.047561509
0.063195601
0.071604829
0.073243281
0.068225232
0.056251752
0.036906335
0.012375506
0.0020906872
0.0041834013
0.026088925
0.046372542
0.060096512
0.067427324
0.068852044
0.064488925
0.054018909
0.036942203
0.014271535
0.0023799604
0.0054310468
0.026985197
0.04521673
0.057419978
0.063915619
0.065176547
0.061316571
0.052024901
0.036789095
0.016007689
0.0029042216
0.0067778671
0.027651956
0.044166134
0.055123891
0.06094185
0.062071646
0.058616061
0.05028734
0.036560503
0.017511702
0.0036562523
0.0081557883
0.028204659
0.043244886
0.053149062
0.058412808
0.059436701
0.056308516
0.048778812
0.036347927
0.018796604
0.004614618
0.0095327827
0.028795621
0.042497005
0.051550513
0.056399182
0.057346387
0.05445792
0.047545956
0.03622002
0.020029199
0.0056988205
0.001997429
0.0019971302
0.0019971082
0.0019971078
0.0019971077
0.0019971077
0.0019971078
0.0019971079
0.001997109
0.001997159
0.0019736119
0.0019708154
0.0019706332
0.0019705684
0.0019705436
0.0019705395
0.001970553
0.0019705931
0.0019706786
0.0019734808
0.0019523124
0.0019499163
0.0019498412
0.0019497641
0.00194972
0.0019497114
0.001949738
0.0019498007
0.0019498772
0.001952286
0.001933706
0.0019315581
0.0019315259
0.0019314718
0.0019314344
0.0019314266
0.0019314504
0.0019315014
0.0019315497
0.0019336713
0.0019173716
0.001915524
0.0019155224
0.0019155411
0.0019155831
0.001915596
0.0019155628
0.0019155313
0.0019155153
0.0019172923
0.0019032486
0.0019019458
0.0019021509
0.0019025796
0.0019030681
0.0019032005
0.0019028404
0.0019023445
0.0019019675
0.0019031136
0.0018917683
0.0018916971
0.0018928633
0.0018950811
0.0018975797
0.0018985306
0.0018964091
0.0018938599
0.0018919635
0.0018916374
0.0018840492
0.0018867821
0.001891343
0.0019028837
0.0018922927
0.0019017462
0.0019040771
0.0018955645
0.0018880774
0.0018842652
0.0018816723
0.001890008
0.0019052916
0.0019748394
0.0027684428
0.0035004857
0.002207255
0.0019078032
0.0018948903
0.0018833628
0.0018851674
0.0019023088
0.0019964658
0.0068831402
0.02034545
0.024323833
0.013409162
0.0027209022
0.0019098478
0.0018903227
0.0018915336
0.0019149305
0.0037727877
0.022548211
0.042851223
0.047440018
0.033864027
0.010832102
0.0020708348
0.0019018442
0.0018949347
0.001976797
0.0097224629
0.035330376
0.054234951
0.058090462
0.046241344
0.021834124
0.0030973525
0.0019122906
0.0018926293
0.0022654255
0.016181917
0.041711974
0.057755646
0.06098376
0.051068156
0.029335677
0.0059019452
0.0019333967
0.0018871492
0.0030678216
0.021129374
0.044262595
0.058004126
0.060762888
0.052297869
0.033450191
0.0091546965
0.0020145171
0.0018818464
0.0045888606
0.02446643
0.044970962
0.05681101
0.059166703
0.051928725
0.035522603
0.012419471
0.0022535258
0.0018792955
0.0065690395
0.026630972
0.04478879
0.055030011
0.057053379
0.050829914
0.036514972
0.015329437
0.0028424233
0.00188149
0.0085057792
0.028086754
0.044176026
0.053114332
0.054871793
0.049463767
0.036900736
0.017792823
0.0039382144
0.0019116369
0.010256083
0.029072603
0.043385253
0.051269943
0.052815196
0.048061508
0.036940883
0.019700782
0.005489175
0.0019917105
0.011934405
0.029722483
0.042551284
0.049578477
0.050953392
0.046728113
0.036790349
0.021155323
0.0071556121
0.002166161
0.013582086
0.030151591
0.041758794
0.048074106
0.049307284
0.045520022
0.036564033
0.022286674
0.0087696305
0.0025071611
0.015104168
0.030500019
0.041056504
0.046750161
0.047860299
0.044453263
0.036353323
0.023264023
0.010300965
0.0030858553
0.016587192
0.030900375
0.040493815
0.045659237
0.046667008
0.043577151
0.036226757
0.024253482
0.011778475
0.0019973619
0.0019971349
0.0019971105
0.0019971086
0.0019971086
0.0019971087
0.0019971125
0.001997159
0.0019973334
0.0019735552
0.0019708385
0.0019706787
0.0019706458
0.0019706343
0.0019706663
0.0019707574
0.0019734805
0.0019735671
0.0019522583
0.0019499175
0.0019498657
0.0019498512
0.0019498391
0.0019498666
0.0019499056
0.0019522864
0.0019522652
0.0019336468
0.0019315534
0.0019315334
0.0019315299
0.0019315228
0.0019315374
0.0019315618
0.0019336719
0.0019336449
0.0019173136
0.0019155075
0.0019154937
0.0019155092
0.0019155141
0.0019155055
0.0019155262
0.0019172938
0.0019172899
0.0019031958
0.0019018832
0.0019019375
0.001902087
0.0019021464
0.0019020234
0.0019019551
0.001903117
0.0019031189
0.0018917218
0.0018914867
0.0018919329
0.0018926988
0.001892966
0.0018923528
0.0018917975
0.001891643
0.0018915076
0.0018840064
0.0018861826
0.0018880548
0.0018916634
0.0018925445
0.0018897752
0.0018872978
0.0018842756
0.0018834657
0.0018816257
0.0018885888
0.0018944394
0.001905084
0.0019074543
0.0019014786
0.0018921635
0.0018833806
0.0018804296
0.0018851033
0.0018994705
0.0019078085
0.0020442191
0.0021401795
0.0019403613
0.0019088015
0.0018903464
0.001882906
0.0018914506
0.0019115909
0.0021656898
0.0043904376
0.0055647399
0.0028414762
0.0019394029
0.0019018672
0.001888282
0.0018948321
0.0019385996
0.0038319307
0.010696526
0.012713762
0.0071279154
0.0022633785
0.0019122873
0.001891367
0.0018924125
0.002112831
0.0072959161
0.016462751
0.018884173
0.011968175
0.0034202074
0.001933267
0.0018894291
0.0018867741
0.0026081227
0.010621071
0.020717861
0.023137794
0.016080576
0.0055979905
0.0020140418
0.00188442
0.0018816933
0.0036536863
0.013701082
0.023796013
0.026056972
0.019317796
0.0081507755
0.0022522385
0.0018792034
0.0018799514
0.0052269618
0.016372401
0.025960309
0.027996279
0.021848711
0.010406123
0.0028392749
0.0018764744
0.0018903575
0.0069975272
0.018628579
0.027430991
0.029262018
0.023730444
0.012362374
0.003932748
0.0018818329
0.0019349821
0.0086435844
0.020423789
0.028405345
0.030050852
0.025084326
0.014262493
0.0054818114
0.0019048153
0.0020495968
0.010170543
0.02179547
0.029058293
0.030560537
0.026030013
0.016004225
0.0071484937
0.001976629
0.002294296
0.011685962
0.022836313
0.029502758
0.030879943
0.026733823
0.017512858
0.0087639925
0.0021312896
0.0027509546
0.013158991
0.023693605
0.029838245
0.031086635
0.027308392
0.018801639
0.010297533
0.0024308311
0.0034313791
0.014630517
0.024605114
0.030168731
0.031263057
0.027908421
0.020036021
0.011776147
0.0029338205
0.0019973893
0.0019972663
0.0019971623
0.0019971405
0.0019971749
0.0019973264
0.0019736724
0.0019735549
0.0019734864
0.0019708694
0.0019735005
0.0019735583
0.0019523356
0.0019523076
0.00195228
0.0019499191
0.0019522739
0.0019522903
0.0019336973
0.0019337196
0.0019336931
0.0019315387
0.0019336732
0.0019337044
0.0019173345