/*--------------------------------*- C++ -*----------------------------------*\
| =========                 |                                                 |
| \\      /  F ield         | OpenFOAM: The Open Source CFD Toolbox           |
|  \\    /   O peration     | Version:  2406                                  |
|   \\  /    A nd           | Website:  www.openfoam.com                      |
|    \\/     M anipulation  |                                                 |
\*---------------------------------------------------------------------------*/
FoamFile
{
    version     2.0;
    format      ascii;
    arch        "LSB;label=32;scalar=64";
    class       volScalarField;
    location    "200";
    object      omega;
}
// * * * * * * * * * * * * * * * * * * * * * * * * * * * * * * * * * * * * * //

dimensions      [0 0 -1 0 0 0 0];

internalField   nonuniform List<scalar> 
71615
(
9.851213
9.8563742
8.6192425
8.617746
7.629453
7.6275614
6.8465199
6.8449795
6.2129128
6.2117579
5.6923094
5.6915514
5.2609021
5.2606685
4.9032978
4.9039705
4.6091923
4.6115074
4.3688116
4.3736417
4.167818
4.1751864
3.9888102
3.9970159
3.8214988
3.8284533
3.6650335
3.6701852
3.5202283
3.5242914
3.3861974
3.3901268
3.2620021
3.2670084
3.1470812
3.1578907
3.0479995
3.0633615
2.9757964
3.0100742
2.9441187
3.0003075
2.9727384
3.0298113
9.8530338
9.8429819
9.8406241
9.840229
9.8408748
9.8448711
9.8566644
8.6165107
8.4797574
8.4749442
8.4733072
8.4765184
8.613246
8.6166385
7.6280914
7.5234009
7.5211441
7.5198801
7.5217106
7.6274103
7.6276435
6.84569
6.7607116
6.7590664
6.7578298
6.7594107
6.8452483
6.8453634
6.212569
6.1419826
6.1402041
6.1388047
6.1406531
6.2119867
6.2123844
5.6924723
5.6330906
5.6308924
5.6292353
5.6315758
5.6915738
5.6924015
5.2617011
5.2119753
5.2095139
5.2075579
5.210361
5.2604943
5.2616973
4.9049621
4.8652007
4.8635556
4.8614441
4.8640665
4.9038995
4.9049345
4.6119183
4.5845322
4.5871103
4.58563
4.5853797
4.6124365
4.6116848
4.3724836
4.3605644
4.3689363
4.3671932
4.3639571
4.3769402
4.3717804
4.1718733
4.1719824
4.1865749
4.1879147
4.1904591
4.1821824
4.170526
3.9924391
4.0030772
4.1252461
4.2058841
4.0331058
4.0068483
3.9906443
3.8239514
3.857224
4.2172101
4.4020574
4.0101323
3.8403176
3.8221375
3.6662568
3.796927
4.4202069
4.7526801
4.0773213
3.6873346
3.6645294
3.5208597
3.8142225
4.7324545
5.1077867
4.2522659
3.5516256
3.5189004
3.3868554
3.9181277
5.0121914
5.2935144
4.5116817
3.4676271
3.3844691
3.2641711
4.1020588
5.1461806
5.3176905
4.7403231
3.4813185
3.2597367
3.1508893
4.3103565
5.1229474
5.2134098
4.8467783
3.6285769
3.1442103
3.0696644
4.4467935
4.9905309
5.0249221
4.8181267
3.8337712
3.0393099
3.0345369
4.4677289
4.7946689
4.8088092
4.6980357
3.9908592
2.9637587
3.0607214
4.3928449
4.5782237
4.5870725
4.5247576
4.0500015
2.9376089
3.1491336
4.2627233
4.3754874
4.3813821
4.3360285
4.0260582
2.9679389
9.8498649
9.840149
9.8395938
9.8395725
9.8395767
9.8395758
9.8396431
9.8408441
9.8535004
8.6143347
8.4720389
8.4678162
8.466024
8.4657143
8.4666877
8.4698158
8.4786294
8.6154274
7.6269351
7.5195731
7.5167988
7.5145931
7.5141025
7.5155269
7.5185623
7.5231042
7.6269633
6.8446271
6.7579464
6.7555883
6.7534491
6.7529112
6.7544111
6.7571156
6.7605388
6.8445114
6.2115809
6.1391333
6.1356595
6.132658
6.1319049
6.1340017
6.1376786
6.1418345
6.211449
5.69163
5.6296983
5.624501
5.6200873
5.6189904
5.6220419
5.6273363
5.6330473
5.6914656
5.2612089
5.2081746
5.2019496
5.1966944
5.1954192
5.1990026
5.205245
5.2123006
5.2608161
4.9052382
4.8622754
4.8588418
4.8575874
4.8572704
4.8581537
4.8606186
4.8663948
4.9041388
4.6135688
4.5859221
4.5967164
4.5684212
4.5821869
4.6043765
4.5914515
4.5872205
4.6109849
4.3760596
4.3717639
4.4331438
4.9866482
5.2398597
4.6645711
4.3960592
4.3656081
4.3711702
4.1774263
4.1946349
5.0701046
6.9073778
7.295419
6.1466423
4.3990264
4.1817531
4.1699972
3.9992736
4.1835165
6.4378998
7.7052776
7.8738046
7.3071456
5.0448359
4.0159126
3.9901659
3.8310053
4.4620451
6.9706771
7.5830293
7.6683319
7.3911368
5.9825008
3.8760076
3.8215621
3.6731857
5.0325725
6.9020975
7.2807334
7.3422763
7.1505014
6.3822663
3.8478851
3.6636625
3.5280558
5.5037803
6.66667
6.929741
6.9717597
6.8381808
6.3331844
3.9416732
3.5178601
3.397341
5.6568232
6.3630183
6.5339488
6.5596459
6.476393
6.1253694
4.1550525
3.3834399
3.2839139
5.5529294
6.0206375
6.1221271
6.1357944
6.0890075
5.8662668
4.4408434
3.259188
3.2261075
5.3474659
5.6663968
5.7215112
5.7273853
5.7046105
5.5751475
4.6686035
3.1466119
3.2762878
5.1202675
5.3230697
5.3470722
5.3475045
5.3414828
5.2743697
4.7454687
3.0497247
3.4442881
4.8852918
5.0016429
5.0042447
5.0008462
5.0067682
4.9775969
4.6764056
3.0064909
3.6330523
4.6536482
4.7070237
4.693794
4.6879538
4.7018959
4.699407
4.5218753
3.0302034
3.7460818
4.4238629
4.4378559
4.4143739
4.4072938
4.4258978
4.4429895
4.3437699
3.1317585
9.8530296
9.8401478
9.8395593
9.8395434
9.8395346
9.8395332
9.839538
9.8395513
9.8395892
9.8411129
9.8509386
8.6164895
8.4720271
8.4663215
8.4638273
8.4628153
8.4626344
8.4631984
8.4648046
8.4687116
8.4796467
8.6175308
7.6280573
7.5195736
7.5151124
7.5111293
7.5089277
7.5084803
7.5098158
7.5128864
7.5176045
7.5229824
7.6287425
6.8456474
6.7579461
6.7540572
6.7491868
6.7456947
6.7449291
6.7471663
6.7515805
6.7563191
6.7602395
6.8460433
6.212519
6.1391263
6.1335704
6.1266107
6.1213068
6.1200858
6.1235816
6.130084
6.1367104
6.1416024
6.2127131
5.6924118
5.6296815
5.6214774
5.6113798
5.6037519
5.6019266
5.6069828
5.6164333
5.6260766
5.6329437
5.6924147
5.2616284
5.2081483
5.1983727
5.1869291
5.1803441
5.1781044
5.1824427
5.1926189
5.2038869
5.2122225
5.2613024
4.9048828
4.8622495
4.8574268
4.860801
4.8267532
4.8424223
4.8568199
4.8575699
4.8601032
4.8659762
4.903862
4.6118515
4.5859319
4.6081123
4.8580712
6.4940183
7.0097329
5.5655451
4.6183226
4.5940062
4.5857481
4.6095132
4.3724596
4.3718345
4.6647699
7.858032
9.4202649
9.6428242
8.9085661
6.0643375
4.382519
4.3621009
4.3681973
4.1719224
4.1944789
6.5077498
8.8944128
9.4974869
9.613513
9.2696055
8.1834717
4.5916318
4.1754162
4.1658315
3.9925609
4.1873835
7.5999265
8.5607676
8.9476874
9.0282715
8.7896303
8.2299739
5.736446
4.0100815
3.9858745
3.8241202
4.4745532
7.5220922
8.1264307
8.4356195
8.5030639
8.3068379
7.8806563
6.6144636
3.8406023
3.8182795
3.6664462
5.0541749
7.2409374
7.6830633
7.8926349
7.9341537
7.807406
7.504298
6.7285085
3.7540923
3.6617554
3.5210505
5.5205787
6.907451
7.192759
7.2998974
7.3177214
7.2586288
7.0837633
6.5570243
3.7521519
3.5170021
3.3870539
5.6672274
6.528928
6.68405
6.7160052
6.7179347
6.706006
6.6320773
6.3002826
3.8483924
3.3830726
3.2644723
5.55864
6.1301245
6.1925257
6.177142
6.1697652
6.1863289
6.179882
5.9862783
4.0341524
3.2585205
3.1514436
5.352037
5.7355054
5.7381919
5.6955463
5.683256
5.7154817
5.7502332
5.6482247
4.2716775
3.1425749
3.0716614
5.124119
5.3622927
5.3282032
5.2712949
5.2567605
5.2966322
5.354823
5.3156019
4.4405625
3.0370612
3.0386561
4.8889703
5.0193613
4.9626789
4.899317
4.8840338
4.9269074
4.9974973
5.0024942
4.4828515
2.9500791
3.0679182
4.6558134
4.7087469
4.6381211
4.5728305
4.5576289
4.6008565
4.6773188
4.713479
4.4136245
2.8949052
3.1590839
4.4252512
4.4286649
4.3510564
4.2873448
4.2728944
4.3143866
4.3916556
4.4480951
4.2822399
2.8990916
9.8429818
9.8395937
9.8395432
9.8395261
9.8395178
9.8395161
9.8395204
9.8395323
9.8395554
9.8397088
9.848247
8.4797535
8.4678117
8.4638244
8.4620806
8.461262
8.4611045
8.4615838
8.4627996
8.46537
8.4707372
8.6149412
7.523391
7.5167883
7.5111212
7.5071711
7.5048602
7.5043801
7.5058064
7.5089505
7.5137633
7.5182756
7.6278401
6.7606893
6.7555663
6.7491715
6.7426352
6.7381944
6.7372239
6.7400631
6.7457607
6.7525905
6.7565239
6.8456239
6.1419412
6.135619
6.1265825
6.1164003
6.1087992
6.1070999
6.1120568
6.1214375
6.1314901
6.1375098
6.2124821
5.6330266
5.6244378
5.6113345
5.5967618
5.5854587
5.5829896
5.5905992
5.603865
5.6184429
5.6278469
5.6924022
5.2118936
5.2018701
5.1868746
5.1763559
5.1656292
5.1602416
5.1771693
5.1785156
5.1948716
5.2061813
5.2620309
4.8651247
4.8587987
4.8607371
4.8984436
5.6366184
6.0460005
5.149855
4.8280468
4.8569261
4.8606244
4.9066914
4.5845291
4.5969527
4.86231
8.3712161
10.21146
10.494247
9.5776591
6.420172
4.5862482
4.586823
4.6168469
4.3607246
4.4370583
7.8813448
10.17817
11.010592
11.18275
10.674969
9.411505
5.3324195
4.3749271
4.3826608
4.1724567
5.0951095
8.9039509
9.9474981
10.662674
10.839726
10.346814
9.487868
7.6148153
4.2173965
4.1871959
4.0031015
6.4721239
8.5654099
9.2794439
9.7585605
9.9779209
9.6407275
8.9396704
8.0228402
4.3521852
4.0085409
3.8603747
6.9892051
8.1285621
8.706176
9.1867972
9.3101835
8.9657388
8.4280045
7.7440676
4.7765749
3.8384646
3.803618
6.9126792
7.6839005
8.0567119
8.2987242
8.3530368
8.1940509
7.8883426
7.4026093
5.3468967
3.6831819
3.8254357
6.6740189
7.193056
7.3688095
7.4433634
7.4566912
7.413537
7.2992146
7.0157638
5.674877
3.5429052
3.9347906
6.367287
6.6841778
6.7223206
6.7018542
6.6939812
6.7126617
6.7175907
6.5907733
5.726302
3.4349112
4.1239873
6.0231055
6.1926179
6.1474295
6.0786134
6.0607959
6.109377
6.179896
6.1584122
5.5857311
3.3763981
4.3325343
5.6683805
5.7383015
5.6469956
5.5563512
5.5345484
5.5957276
5.6988098
5.7423631
5.368896
3.4008037
4.4645275
5.3247861
5.328344
5.2139571
5.1158043
5.0930346
5.1578419
5.2745363
5.356046
5.1311414
3.5196864
4.4799843
5.0031139
4.9628322
4.8387379
4.7405368
4.7182782
4.7822047
4.9021534
5.0048039
4.8883327
3.6688191
4.4008737
4.7080908
4.6382696
4.5121324
4.417629
4.3965609
4.4574548
4.5750942
4.6887997
4.6513686
3.7823019
4.2675963
4.4386395
4.3511913
4.2292483
4.1417039
4.1224462
4.1783804
4.2890326
4.4056538
4.4189163
3.8217198
9.851191
9.8406245
9.8395725
9.8395345
9.8395177
9.8395094
9.8395073
9.8395117
9.8395229
9.8395452
9.8396148
9.8424939
8.6192029
8.474941
8.4660196
8.4628102
8.4612589
8.4604685
8.4603115
8.4607849
8.4619179
8.46408
8.4692938
8.6120978
7.6294162
7.5211321
7.5145784
7.508912
7.5048503
7.502377
7.5018558
7.5033985
7.5067071
7.5115202
7.5180386
7.6272706
6.846477
6.7590369
6.7534147
6.7456595
6.7381717
6.7330322
6.7319073
6.7351995
6.7417637
6.7496964
6.7566299
6.8450432
6.2128562
6.1401491
6.1325942
6.1212421
6.1087562
6.0996272
6.0976308
6.1034689
6.1149392
6.1273073
6.1369413
6.2116063
5.6922334
5.6308091
5.6199893
5.6036523
5.5853919
5.5714732
5.569453
5.5761393
5.5948757
5.6123448
5.6261784
5.6911344
5.2608082
5.2094141
5.196579
5.1802576
5.1655156
5.1126652
5.1286968
5.1024574
5.1831526
5.1878935
5.2037157
5.2604752
4.9032049
4.8634843
4.8575534
4.8275668
5.644172
8.1175899
8.6198281
7.0618155
4.9620469
4.862143
4.8591232
4.9054104
4.6091478
4.587192
4.5694282
6.5295272
10.221588
11.401466
11.590561
10.97803
8.8231923
4.8319438
4.5897667
4.6172432
4.3688849
4.3691699
5.0084411
9.4452065
11.026223
11.920112
12.0752
11.554611
10.359016
7.4779197
4.3828387
4.3868358
4.1680409
4.1864449
6.9485033
9.5097917
10.552469
11.58968
11.787298
11.392424
10.079815
8.7635841
4.6575823
4.1934649
3.9891294
4.131809
7.7251796
8.9551969
9.7657133
10.716254
11.123176
10.628433
9.3821778
8.4951111
5.5544714
4.0205353
3.8218585
4.2309043
7.5929496
8.4399462
9.1910939
9.908783
10.035241
9.5949888
8.7925964
8.0743824
6.2975439
3.8636605
3.6654091
4.4419326
7.2872059
7.8953615
8.3012112
8.6065186
8.6679728
8.4745975
8.1044739
7.6441101
6.5117906
3.7520904
3.5206097
4.7594832
6.9338887
7.3016655
7.4448356
7.5142208
7.5260389
7.4857239
7.3852262
7.1668251
6.4095467
3.7191081
3.3865909
5.0361231
6.5368169
6.7171978
6.702757
6.6558566
6.642532
6.677267
6.7198473
6.6694291
6.1734272
3.8243633
3.2624414
5.1629451
6.1242485
6.1779744
6.079184
5.980348
5.9563142
6.0234005
6.1349053
6.1857342
5.8886604
4.0302837
3.147691
5.134092
5.7231468
5.6961567
5.5567228
5.438461
5.4109123
5.4891939
5.6297029
5.7365263
5.584873
4.2225278
3.0493602
4.9979079
5.3483141
5.271762
5.116053
4.9941163
4.9664049
5.045922
5.1948973
5.3302336
5.2762303
4.3299758
2.9788825
4.7997019
5.005206
4.8996806
4.7407059
4.6224575
4.5960369
4.6723487
4.8195567
4.9674512
4.976192
4.3386733
2.9500449
4.5819548
4.6945587
4.5731135
4.4177438
4.3064083
4.2818489
4.3531298
4.4936852
4.6448419
4.6936198
4.2722813
2.9822949
4.3785543
4.4150002
4.2875709
4.1417864
4.0404809
4.0183724
4.0827876
4.2121939
4.3589368
4.4343173
4.1627132
9.8565124
9.8402292
9.8395766
9.8395331
9.839516
9.8395072
9.8395051
9.8395098
9.839521
9.8395432
9.8396129
9.841453
8.6177156
8.4733043
8.4657086
8.462627
8.4610988
8.4603087
8.4601506
8.4606254
8.4617509
8.4638561
8.4687382
8.48118
7.627527
7.5198661
7.5140837
7.5084579
7.5043611
7.5018454
7.5013137
7.5028857
7.5062393
7.5110583
7.5174787
7.5232441
6.8449389
6.7577949
6.7528675
6.7448788
6.7371797
6.7318825
6.7307221
6.7341188
6.7408777
6.7490245
6.7561465
6.7603456
6.2117029
6.1387406
6.131825
6.1199934
6.107017
6.0975843
6.0955215
6.1015795
6.1134246
6.126319
6.1363267
6.1416354
5.691475
5.6291407
5.6188705
5.6017896
5.5828633
5.5694015
5.5675923
5.5744144
5.5924353
5.6109083
5.6253604
5.6327924
5.2605811
5.2074503
5.1952849
5.1780405
5.1600332
5.1290992
5.1562545
5.1253804
5.1748476
5.1864472
5.2028542
5.2115765
4.9038996
4.8613822
4.8572455
4.8433649
6.0648809
8.6303158
9.1342961
7.6409506
5.0513064
4.8609139
4.8590504
4.8642834
4.61152
4.5857649
4.5834003
7.0473583
10.509343
11.596399
11.770919
11.195449
9.2441267
4.9746335
4.5919117
4.5823572
4.3738113
4.3675447
5.2661469
9.6683591
11.205002
12.084806
12.199508
11.736874
10.528092
7.902735
4.4089554
4.3560771
4.1755101
4.1897258
7.3327163
9.6310755
10.81544
11.801512
11.680484
11.697934
10.223465
8.9205664
4.8600822
4.1652722
3.9973792
4.2121807
7.8911375
9.0394917
9.9942818
11.137805
10.883963
11.11792
9.7100555
8.577387
5.9329894
3.9987987
3.828797
4.414279
7.6782694
8.5123204
9.3226322
10.045386
10.11191
9.7516312
8.8827632
8.1382736
6.5700301
3.829673
3.6705263
4.7704991
7.3500393
7.9412867
8.360723
8.6734595
8.7269105
8.5394578
8.1515986
7.6890016
6.6747801
3.7199464
3.5246537
5.1262587
6.9778066
7.3227349
7.4611939
7.528832
7.5387727
7.5001375
7.4006779
7.1924415
6.5144723
3.6716072
3.390514
5.3088936
6.5642083
6.7213614
6.6966431
6.6439939
6.629145
6.6671515
6.7167496
6.6801295
6.2484814
3.6903812
3.2675108
5.328988
6.1392036
6.1720934
6.0624056
5.9571091
5.9316132
6.0024775
6.1221157
6.1865265
5.9386097
3.7843132
3.1585234
5.2208693
5.7300245
5.6848453
5.5355387
5.4113539
5.3825152
5.4643371
5.6124073
5.7314111
5.616737
3.9444043
3.06495
5.0299415
5.3494359
5.2578518
5.0936475
4.9666484
4.9378519
5.0204308
5.1759662
5.3218024
5.2930498
4.101355
3.0132493
4.8125182
5.0022673
4.8847841
4.7186542
4.5961638
4.5688433
4.6477373
4.8005085
4.9572163
4.983189
4.1908386
3.0054084
4.590416
4.689012
4.5581446
4.3967847
4.281905
4.2565993
4.3300461
4.4752922
4.6337517
4.6950913
4.1896719
3.0368322
4.3836928
4.4081052
4.2732602
4.1225844
4.0183933
3.9956787
4.0618613
4.1951131
4.3477799
4.4328906
4.1160818
9.8408747
9.8395757
9.8395378
9.8395202
9.8395116
9.8395097
9.8395141
9.8395257
9.8395489
9.8396241
9.843196
8.476515
8.4666813
8.4631906
8.4615773
8.4607802
8.460623
8.4610951
8.4622498
8.4645453
8.4703217
8.6128249
7.5216959
7.5155065
7.5097913
7.5057832
7.503381
7.5028771
7.5043672
7.507598
7.5123995
7.518826
7.6273132
6.7593741
6.7543639
6.7471101
6.7400082
6.7351579
6.7340984
6.7372028
6.7434046
6.7509041
6.7572451
6.8449436
6.1405858
6.1339166
6.1234787
6.1119532
6.1033902
6.1015415
6.107054
6.117662
6.1290716
6.1377772
6.2114576
5.6314776
5.6219163
5.6068279
5.5904348
5.5760337
5.5743752
5.582673
5.5985522
5.614922
5.6274251
5.6909067
5.2102522
5.1988664
5.1822951
5.176878
5.1026305
5.1257909
5.1577162
5.1772823
5.1908509
5.2052669
5.2599644
4.8640052
4.8581647
4.856764
5.1597001
7.0853167
7.651536
6.0220875
4.8695883
4.8582531
4.8603891
4.9041311
4.5854725
4.6047424
5.6003052
9.6028505
10.990866
11.201124
10.503278
7.9284545
4.6612324
4.5898319
4.6144365
4.3643855
4.6765807
8.942325
10.697643
11.570818
11.744141
11.199733
10.018583
6.6032505
4.3928161
4.3819282
4.1915093
6.1859405
9.2892669
10.376645
11.423013
11.708731
11.20169
9.8393083
8.4039244
4.4039316
4.1886084
4.0357089
7.3328972
8.8055486
9.663015
10.667024
11.128275
10.521291
9.1937933
8.3291249
4.9420604
4.0118894
4.015314
7.4055758
8.3200899
8.9831338
9.612428
9.7566814
9.3137244
8.6364653
7.9495106
5.7259899
3.8523682
4.0854827
7.1600119
7.8177604
8.204642
8.4832189
8.5430191
8.3566933
8.0161755
7.5533188
6.1415126
3.7088218
4.2644868
6.8459637
7.2660354
7.4198013
7.4901202
7.5021546
7.4591523
7.3533023
7.1117843
6.1982293
3.6232272
4.5271144
6.4824027
6.7111047
6.7163941
6.6795983
6.6682548
6.6958209
6.7227074
6.6432443
6.0323234
3.6322941
4.7555864
6.0934851
6.1897935
6.1116328
6.0246699
6.0030762
6.0622698
6.1566888
6.1794955
5.7856663
3.7761229
4.8592418
5.7079296
5.7178106
5.5970982
5.4898855
5.4646529
5.5357411
5.6607344
5.7427752
5.5104615
3.9808594
4.8275231
5.3439534
5.2981809
5.1586662
5.0462837
5.0205837
5.0939702
5.2296457
5.3437681
5.2310149
4.1476616
4.7045874
5.0086313
4.9279293
4.7826842
4.6725144
4.6477936
4.7189758
4.855007
4.9850944
4.9511055
4.2171079
4.5288822
4.7032897
4.601529
4.4577149
4.3531761
4.3300442
4.3970428
4.5282321
4.6646448
4.6829205
4.1936896
4.3388568
4.4269332
4.3148392
4.1785175
4.0827755
4.0618326
4.1227608
4.2445126
4.3793575
4.4321243
4.1096594
9.8448709
9.8396429
9.8395512
9.8395322
9.8395228
9.8395209
9.8395257
9.8395388
9.8395634
9.8398579
9.8515519
8.6132376
8.4698107
8.4647985
8.462794
8.4619137
8.4617486
8.4622494
8.4635825
8.4666319
8.4751531
8.615186
7.627385
7.5185431
7.5128644
7.5089285
7.506689
7.5062277
7.5075936
7.5106639
7.5155173
7.521324
7.6272944
6.8451966
6.75707
6.7515282
6.7457076
6.741719
6.7408489
6.743393
6.748515
6.7544619
6.7592468
6.8450406
6.2119001
6.1375959
6.1299871
6.121337
6.1148534
6.11337
6.117641
6.1256367
6.1341214
6.140491
6.2120256
5.6914511
5.6272146
5.6162854
5.6037094
5.5947384
5.5923544
5.598521
5.609962
5.62226
5.6313709
5.6920306
5.2603476
5.2051069
5.19245
5.1784007
5.1829596
5.17486
5.1772638
5.1851665
5.1992861
5.2102451
5.2614876
4.9037732
4.8605494
4.8575584
4.8291242
4.9663414
5.0553894
4.8699784
4.8567114
4.8578496
4.8644412
4.9053894
4.6124249
4.5916448
4.6207548
6.4671688
8.8530857
9.2593211
7.9344126
4.981234
4.6059397
4.586993
4.6138159
4.3771511
4.397189
6.1181158
9.4387415
10.375816
10.536817
10.020605
8.2886521
4.5904029
4.3689138
4.3768593
4.1826248
4.40986
8.216832
9.5077921
10.096065
10.231686
9.8415128
9.0357783
6.1054431
4.1990249
4.1789962
4.0073239
5.0770666
8.2478093
8.9562378
9.3958669
9.7182301
9.1962592
8.6431853
7.3783979
4.0595783
4.0008905
3.840856
6.0181964
7.8947548
8.4411173
8.8031446
8.8886704
8.6391533
8.1893497
7.4212623
4.087771
3.8321256
3.6880814
6.4052373
7.5153749
7.897463
8.111224
8.1559667
8.0185399
7.7274963
7.1736032
4.2465245
3.6739588
3.5526367
6.3443711
7.0919505
7.3051129
7.389268
7.4035812
7.3551038
7.2183542
6.8588498
4.5391886
3.5287727
3.4711973
6.1327928
6.6379015
6.7213224
6.7222284
6.7185833
6.7239727
6.695438
6.4939937
4.8799855
3.3977808
3.4902511
5.8720768
6.183885
6.1822467
6.1362945
6.1232396
6.1575393
6.1945306
6.1065534
5.0921632
3.2824049
3.6428079
5.5804471
5.7529292
5.7002841
5.6304992
5.6130738
5.6612829
5.734396
5.7214961
5.1105438
3.2210073
3.8496596
5.2778483
5.3566433
5.2754518
5.1953341
5.1763397
5.2299812
5.320986
5.3557047
4.9894337
3.2418644
4.0043376
4.9803257
4.9987405
4.9027055
4.8197687
4.8006932
4.8551982
4.953497
5.0175151
4.7977067
3.3718069
4.0600013
4.7013248
4.6781779
4.5754082
4.4937532
4.4753553
4.5283297
4.6278502
4.710033
4.5871293
3.5284487
4.0334496
4.4443698
4.3922499
4.2892036
4.212184
4.1951101
4.2445559
4.3404403
4.432102
4.3893096
3.6299579
9.8566821
9.8408438
9.8395892
9.8395553
9.8395451
9.8395432
9.8395488
9.8395635
9.8396503
9.8423191
8.6166356
8.4786249
8.4687084
8.4653668
8.4640772
8.463855
8.4645458
8.4666301
8.4708089
8.6124941
7.6276355
7.5230866
7.5175872
7.5137458
7.5115048
7.5110483
7.5123954
7.5155127
7.5189626
7.6279573
6.845337
6.7604973
6.7562751
6.7525463
6.7496576
6.7489976
6.7508919
6.7544583
6.7574053
6.8457701
6.2123302
6.1417588
6.1366281
6.1314061
6.1272332
6.1262679
6.1290474
6.1341138
6.1384751
6.2121806
5.6923151
5.632935
5.6259505
5.6183106
5.612228
5.6108292
5.6148852
5.6222483
5.6288907
5.6912957
5.2615892
5.2121697
5.2037339
5.1947075
5.1877607
5.1863635
5.1908151
5.1992776
5.207312
5.2596493
4.9048415
4.8663074
4.8600074
4.8568588
4.8621287
4.8609176
4.8582836
4.8578587
4.8617063
4.902512
4.6116772
4.5873002
4.594204
4.5879817
4.8412041
4.9812149
4.6624266
4.6059903
4.5863453
4.6109312
4.3719365
4.3659886
4.3853318
5.371215
7.5181461
7.9218841
6.6095948
4.5906464
4.374371
4.3760704
4.1708594
4.1823962
4.6125876
7.6574519
8.7824685
8.9296432
8.4075242
6.1039842
4.2048418
4.1830033
3.9910714
4.01586
5.7932763
8.0433259
8.5068602
8.5841106
8.3318054
7.3779708
4.2657255
4.0110343
3.8225835
3.8803921
6.6558398
7.7587153
8.083408
8.1442355
7.9527745
7.4208187
4.7290979
3.8478846
3.6649829
3.8582992
6.7506197
7.4131685
7.6506726
7.6939605
7.5568182
7.1732199
5.4195822
3.7010145
3.5193757
3.9601706
6.5738731
7.0231974
7.1713909
7.1962455
7.1147608
6.8592392
5.7974071
3.5786237
3.3849757
4.1817246
6.3121799
6.5959263
6.6724918
6.6828815
6.6456057
6.4943694
5.8209005
3.5301562
3.260304
4.4725267
5.9939397
6.1619348
6.1877727
6.1884421
6.181255
6.1067675
5.6483751
3.6102345
3.1449051
4.6954998
5.6535624
5.7448548
5.7379043
5.7327347
5.7439996
5.7216191
5.4246313
3.8199996
3.0400777
4.7642475
5.3196691
5.3578592
5.3311665
5.3226916
5.3445776
5.3558444
5.1809533
4.0520328
2.9670867
4.6873393
5.0057881
5.006119
4.9680719
4.9577914
4.9856199
5.0176368
4.9292692
4.2008705
2.9440249
4.5285842
4.7159034
4.6897519
4.6452431
4.6341063
4.6649792
4.7100951
4.6762909
4.2295392
2.9783285
4.3481872
4.4498284
4.4063276
4.3591918
4.3479923
4.3795666
4.4321159
4.435727
4.1666296
9.8535
9.8411134
9.8397087
9.8396148
9.8396129
9.839624
9.8398577
9.8423156
9.8519835
8.615412
8.4796445
8.4707368
8.4692921
8.468738
8.470323
8.4751511
8.612458
8.6157427
7.6269294
7.5229681
7.5182626
7.5180259
7.5174706
7.5188234
7.5213211
7.6279425
7.6270391
6.8444537
6.760203
6.7564892
6.7565977
6.7561238
6.757235
6.7592414
6.8457581
6.8445247
6.2113613
6.1415337
6.137444
6.1368816
6.1362833
6.1377562
6.1404818
6.2121704
6.2113833
5.6913434
5.6328383
5.6277444
5.626086
5.6252939
5.627393
5.6313589
5.6912883
5.6912554
5.260667
5.2120928
5.2060496
5.2035992
5.2027772
5.2052335
5.2102387
5.2596462
5.2602991
4.9039981
4.8658715
4.8605154
4.859043
4.8590153
4.8603828
4.8644558
4.9025204
4.9029765
4.6109259
4.5857737
4.5869222
4.5899408
4.5920534
4.5898599
4.5870488
4.6109589
4.6086323
4.3712821
4.3623998
4.3762363
4.3848502
4.4102632
4.3922873
4.3690067
4.376117
4.367119
4.1703211
4.1761933
4.2220204
4.6747874
4.8698604
4.4047485
4.1991257
4.1830586
4.1644298
3.9906402
4.0117201
4.3714891
5.5927102
5.9503516
4.9424516
4.0593077
4.0110693
3.9842869
3.822091
3.8430495
4.8195547
6.3290686
6.5842523
5.7267589
4.0857966
3.8478867
3.8167257
3.6642042
3.7620212
5.3955419
6.5329643
6.6845241
6.1433417
4.2426505
3.7009453
3.6602941
3.5184105
3.7674135
5.7098554
6.4234572
6.521105
6.1989899
4.5341761
3.5783934
3.5154405
3.3840218
3.8729163
5.7493745
6.1839263
6.2537658
6.0324712
4.8758115
3.5296026
3.3813457
3.2598621
4.0677329
5.6008513
5.8963335
5.9427776
5.7861254
5.0903508
3.6089499
3.2568977
3.1479961
4.307229
5.3811434
5.5903067
5.6200138
5.5114543
5.1101759
3.8183066
3.1409774
3.0532341
4.4703091
5.1408898
5.2799621
5.2953164
5.2321003
4.9891323
4.0504363
3.0369622
3.0142369
4.5033467
4.8970154
4.9788502
4.9848098
4.9521582
4.7971693
4.1996562
2.9520116
3.0450188
4.4268645
4.656351
4.6956013
4.6963096
4.683675
4.5864867
4.2287144
2.902428
3.1537803
4.2904839
4.4224
4.4358489
4.4338182
4.4326344
4.3886604
4.1660901
2.9145757
9.851016
9.8482471
9.8424945
9.8414533
9.8431955
9.8515519
8.6176018
8.6149472
8.6120963
8.4811801
8.6128269
8.6152097
7.6288105
7.6278444
7.6272619
7.5232338
7.6273121
7.6273352
6.84609
6.8456169
6.845018
6.7603212
6.8449344
6.8450898
6.2127257
6.2124532
6.2115574
6.1415923
6.2114379
6.2120761
5.6923855
5.6923446
5.6910584
5.632729
5.6908734
5.6920793
5.2612352
5.2619495
5.2603782
5.2115032
5.259922
5.2615373
4.9037783
4.9066125
4.905321
4.8642276
4.9041019
4.9054557
4.6094684
4.6168443
4.6172378
4.5823748
4.6144609
4.6139228
4.3682781
4.3828479
4.3870082
4.3562205
4.382041
4.3770208
4.1661007
4.1877053
4.1938211
4.1655041
4.1887859
4.1791826
3.9863093
4.0091535
4.0214266
3.9992931
4.0121021
4.0010532
3.8188064
3.8393016
3.8649783
3.8301769
3.8525808
3.8322522
3.6623232
3.6843712
3.7566492
3.721769
3.7090143
3.6740775
3.5175908
3.5444436
3.72977
3.6749211
3.6234518
3.5288946
3.3836756
3.4392862
3.8454403
3.6958303
3.63298
3.3978545
3.2591674
3.3853337
4.0557714
3.7925388
3.7779397
3.282248
3.1433273
3.4191161
4.2470929
3.9542822
3.9839537
3.2204181
3.0383973
3.5455267
4.3501275
4.1110922
4.1513426
3.2406718
2.953383
3.696718
4.3540149
4.1989911
4.2204822
3.370509
2.9022004
3.806975
4.283656
4.1959788
4.1963681
3.5277262
2.9130964
3.840674
4.171229
4.1208685
4.1117638
3.6298375
9.8510161
9.8515519
8.9075329
8.903884
9.8482472
9.8431956
8.9025883
8.8982119
9.8565129
8.9101824
8.9089433
9.8424941
9.8414533
8.8970959
9.0501552
9.8512149
8.9089799
8.9101807
9.8414528
9.8424944
9.0501503
8.8970941
9.8431957
9.8482471
8.8982137
8.9025878
9.8515519
9.851016
8.9038846
8.9075331
2.8983031
3.6167358
2.9429512
3.6159001
3.8196481
4.1044967
3.7909404
4.032416
3.0291451
3.0262851
3.0754698
4.1612417
4.1120844
4.069761
4.1444562
2.9754712
3.07626
3.0295968
4.1134346
4.162978
4.1447646
4.0711008
4.1064723
3.8244471
4.0339181
3.7946471
3.6216929
2.9007161
3.6196723
2.9463317
9.851987
8.9056096
9.8566646
8.907052
9.853489
9.8423283
8.9048794
8.897166
8.9070525
9.8423262
9.8534723
8.8971555
8.9048698
9.851987
8.9056122
2.8873099
2.9341648
2.9659254
3.0166179
3.1335842
4.1627123
3.2150442
4.1014613
3.0192453
4.1638394
3.1323299
4.1021704
3.2137255
2.8859358
2.9321736
9.8534836
8.9048486
9.8566821
9.8423251
8.9070495
8.8971342
8.9048624
9.8423252
9.8566822
8.8971314
8.9070496
3.1355221
3.2168178
2.9719205
4.166726
3.0242981
4.1041248
3.2127564
4.162639
2.9665081
4.1012675
3.0174029
9.8509386
8.9074641
9.8515517
8.9038662
8.9074644
9.8515518
8.9038653
2.9043936
2.9514227
3.6296212
3.6259324
2.9439353
3.6190676
3.6176188
9.8482466
8.9025823
9.8431959
8.8982119
8.9025824
9.8431952
8.8982116
10.840097
9.9421411
10.164562
11.392871
11.688911
10.721947
11.142008
10.661716
10.164301
9.9403255
11.68744
11.388853
11.14208
10.718842
9.9780944
9.3071462
9.5126655
10.630637
11.11075
10.052808
10.369251
9.7573636
9.5131735
9.3053973
11.110899
10.628034
10.37107
10.050602
3.8313491
3.8001032
4.1114004
4.0377301
3.7924665
4.1060285
4.033549
9.842494
8.9101412
8.8970946
9.8563841
9.8414529
8.9089873
9.0501496
9.8511897
8.8970944
8.9101443
9.8414532
9.8565125
9.0501542
8.9089552
11.788675
10.763061
11.14964
11.79743
11.678582
11.164859
10.908966
11.587445
11.149498
10.75911
11.677775
11.793426
10.908644
11.157061
10.549182
10.719586
9.9449209
11.697915
10.807675
11.150209
10.171202
10.632373
9.3115676
10.054161
9.9920372
11.12486
9.5235397
10.380046
11.123144
10.249448
10.511819
11.137101
10.883463
10.520812
10.540316
10.712694
10.512784
10.246669
10.883151
11.129154
10.539163
10.512815
9.7624537
10.051206
9.3094665
11.117257
9.9860696
10.370859
9.5168563
4.1676198
3.0381446
4.0747621
3.0371143
4.1196862
3.084612
4.1488487
2.9751588
4.0708884
3.0292761
4.1142935
3.0317969
4.1458991
3.0785807
9.8414532
8.9089553
9.0501547
9.8511897
9.8424938
8.9101435
8.8970934
9.8563843
9.0501504
8.9089878
9.8424943
9.851191
8.8970922
8.9101407
11.125678
9.52488
10.381396
9.7799285
10.666674
9.325072
10.076944
10.884316
10.523177
10.5426
10.753468
11.14096
10.272702
10.525207
11.129843
10.541093
10.515402
11.140246
10.726454
10.521543
10.254525
9.9868938
10.373937
9.5180297
10.64087
9.7677598
10.05792
9.3124228
4.1190355
3.0842406
4.1487237
2.9818991
4.1676194
3.03772
4.0747541
3.0327148
4.1463266
3.0795056
4.1656126
2.9793981
4.0731412
3.0344842
9.8431948
8.8982132
9.8482468
8.9025811
8.8982119
9.848247
8.9025798
11.7102
10.759036
11.162144
10.569344
10.820085
9.964305
10.183512
11.406009
11.16116
10.733801
10.818235
10.558989
10.181823
9.9544176
11.129078
10.076623
10.384195
9.7815008
9.9972359
9.3247941
9.5269139
10.641581
10.379791
10.05932
9.9955819
9.7713057
9.5247856
9.3162141
4.111878
4.0380682
3.8327571
3.8012583
4.0363274
3.8308221
3.7996315
9.851552
8.9038661
9.8509386
8.9074634
8.9038662
9.8509386
8.9074624
3.6330881
3.6286677
2.908539
2.95719
3.6260758
2.906407
2.9542258
9.8423258
8.9070495
8.8971547
9.8534732
8.9048806
9.8566823
8.897296
8.9070507
9.8534914
8.905173
4.1726716
3.031927
4.1082526
3.1521443
3.233859
2.9751168
4.1028859
3.0280496
3.1486521
3.2151013
9.8519875
8.905614
9.8423248
8.9048517
8.8971279
9.8566644
8.9070501
9.8534609
8.89726
8.905134
9.8566644
8.9070528
8.9056647
2.8976657
2.9488276
4.1755453
3.2352412
4.1101594
2.9826917
3.0373756
3.1478421
4.102499
3.2142555
2.9741
3.0266913
2.9605418
9.8515519
8.9075324
8.9038815
9.8431961
8.902588
8.8982103
9.8414527
8.8970945
9.0501485
9.8512149
9.8563742
8.910179
8.9089782
9.8424939
9.0501557
8.8970941
9.8565129
9.8512129
8.9089429
8.9101817
9.8482471
8.8982136
8.9025864
9.851016
8.9038844
8.9075328
3.6417921
2.9636186
3.6354138
4.1159609
3.8074495
4.0411721
4.1227576
4.0775681
4.1504729
2.9876523
3.0404987
3.0448454
3.0883891
4.1679437
4.1500237
4.0750152
3.0394685
2.9826947
3.0873628
3.0388483
3.8306815
4.0379967
3.7996444
2.9052899
3.626213
2.9528245
9.5425901
9.8506085
9.5413209
9.8554206
9.5451081
9.8571624
9.544004
9.8531741
9.5441095
9.8537481
9.5461028
9.5423535
9.8564541
9.5442374
9.8511978
9.5412762
9.8518906
9.544672
9.5413952
9.8567029
9.5410265
9.8555036
9.5416883
9.8524209
9.844871
8.9059995
8.8995756
9.8411145
9.8398583
9.0462945
9.0406521
9.8530338
8.8995769
8.9059985
9.8398583
9.8411137
9.0406504
9.0462908
9.5450122
9.8520649
9.5435382
9.8522345
9.5427518
9.5413156
9.8543803
4.0226188
3.2193128