/*--------------------------------*- C++ -*----------------------------------*\
| =========                 |                                                 |
| \\      /  F ield         | OpenFOAM: The Open Source CFD Toolbox           |
|  \\    /   O peration     | Version:  2406                                  |
|   \\  /    A nd           | Website:  www.openfoam.com                      |
|    \\/     M anipulation  |                                                 |
\*---------------------------------------------------------------------------*/
FoamFile
{
    version     2.0;
    format      ascii;
    arch        "LSB;label=32;scalar=64";
    class       volScalarField;
    location    "200";
    object      p;
}
// * * * * * * * * * * * * * * * * * * * * * * * * * * * * * * * * * * * * * //

dimensions      [0 2 -2 0 0 0 0];

internalField   nonuniform List<scalar> 
71615
(
0.28430121
0.27995636
0.27938849
0.27926763
0.27693958
0.27695679
0.27239829
0.27243345
0.26446909
0.26452871
0.2512281
0.25132564
0.22985941
0.23000618
0.19675841
0.19695014
0.14848895
0.1486666
0.08454439
0.084554385
0.011974005
0.011631217
-0.052906298
-0.053554761
-0.094024892
-0.094636086
-0.10816439
-0.10850639
-0.10301026
-0.10307949
-0.087984165
-0.087920748
-0.070103608
-0.070073519
-0.05313444
-0.053061322
-0.038475051
-0.038383664
-0.02635856
-0.026208627
-0.016376244
-0.016245549
-0.0078062217
-0.0075474546
0.28039062
0.28041952
0.28086397
0.28101717
0.28074013
0.28024204
0.27936495
0.27919969
0.27976851
0.28039921
0.28056604
0.28009941
0.27949497
0.27915356
0.27680531
0.27748937
0.27838983
0.27863242
0.27795921
0.27726865
0.27672738
0.27217481
0.27310178
0.27449982
0.27487613
0.27383717
0.27289857
0.27206783
0.26409183
0.26540893
0.26759156
0.2681841
0.26656451
0.26523176
0.26394505
0.2506187
0.25237789
0.25566014
0.25655847
0.2541209
0.2523438
0.25042164
0.22895129
0.23090715
0.23546891
0.23672571
0.23333235
0.23136434
0.22870636
0.19557354
0.19675014
0.20219546
0.20370031
0.19964578
0.19850872
0.19532492
0.14728996
0.14542579
0.14998626
0.15122497
0.14786009
0.1499656
0.1471545
0.083929812
0.075561974
0.075613044
0.075523887
0.075619118
0.084733051
0.084109005
0.012544674
-0.0041931249
-0.012170874
-0.014890892
-0.0082742504
0.0098699646
0.013204832
-0.051383429
-0.072143679
-0.086072151
-0.090610405
-0.079337681
-0.056931154
-0.050336195
-0.09255094
-0.10935812
-0.12162216
-0.12479718
-0.11608027
-0.098196144
-0.091472801
-0.10732746
-0.11645977
-0.12272649
-0.1241722
-0.11994315
-0.11114028
-0.1065161
-0.10270492
-0.1050635
-0.10690027
-0.10678563
-0.10620221
-0.10450877
-0.10226882
-0.088009293
-0.086219812
-0.085089651
-0.08426437
-0.085804003
-0.088414669
-0.087888588
-0.070209086
-0.066469551
-0.064228303
-0.063331787
-0.065359585
-0.069817531
-0.070286594
-0.053198926
-0.048913441
-0.046661695
-0.04595845
-0.047748256
-0.052420983
-0.053363238
-0.03851153
-0.034439104
-0.03252832
-0.032072999
-0.033459012
-0.037649362
-0.038692723
-0.026384651
-0.022807815
-0.021316394
-0.021068271
-0.022057967
-0.025554521
-0.026549639
-0.016397531
-0.013434342
-0.012352589
-0.012202643
-0.012880728
-0.015695465
-0.016542617
-0.0077617291
-0.0056315527
-0.0051169956
-0.0051034088
-0.0053830427
-0.007468958
-0.0078473622
0.27998007
0.28103829
0.28243102
0.28355778
0.28390911
0.28332144
0.282062
0.28069183
0.27973782
0.27931473
0.28071766
0.28253351
0.28391847
0.28423135
0.28331389
0.2815993
0.2798688
0.27909899
0.27700727
0.27878507
0.28138254
0.28341293
0.28388274
0.28252563
0.28004271
0.27762807
0.27671019
0.27247456
0.27505831
0.2790906
0.28230291
0.28305839
0.28089865
0.27701602
0.27331164
0.272033
0.26454383
0.26839685
0.27473447
0.27989079
0.28112146
0.27763442
0.27147462
0.26571841
0.26387866
0.25128201
0.25676325
0.2664215
0.27451517
0.27648351
0.27096136
0.26143569
0.25280284
0.25030474
0.22986516
0.23681682
0.25049983
0.26244611
0.26542799
0.25717065
0.24338571
0.23142759
0.22851581
0.19670804
0.20350842
0.22028203
0.23574555
0.23974524
0.2288794
0.21147312
0.19727367
0.19504255
0.14844989
0.15069186
0.1652413
0.17944424
0.18320915
0.17324256
0.15753047
0.14578505
0.14679632
0.084693851
0.074987352
0.073924787
0.067814697
0.065664564
0.071472437
0.075099753
0.075615787
0.083757601
0.012397122
-0.014645764
-0.04649349
-0.082943196
-0.09291264
-0.066046972
-0.028181032
-0.0045892223
0.012993581
-0.052576849
-0.090126984
-0.13689306
-0.18373806
-0.19618725
-0.16277823
-0.11189356
-0.073109565
-0.050353214
-0.094274257
-0.12575013
-0.16136824
-0.19323857
-0.2016271
-0.17977014
-0.14294089
-0.11060137
-0.091387605
-0.10891482
-0.1256164
-0.14349674
-0.15759752
-0.16080305
-0.15201261
-0.1343845
-0.11779425
-0.1064461
-0.10381113
-0.10773691
-0.11257293
-0.11476268
-0.11526913
-0.11424238
-0.11020521
-0.10619228
-0.10221837
-0.088577972
-0.084918268
-0.082818862
-0.080075645
-0.07958671
-0.081356413
-0.08413397
-0.086896606
-0.08786366
-0.070367709
-0.063760445
-0.058875128
-0.054838652
-0.053970644
-0.05656811
-0.061629037
-0.066805217
-0.070275393
-0.053165627
-0.046194891
-0.040794531
-0.03687304
-0.035998723
-0.03852954
-0.043702407
-0.049038614
-0.053320819
-0.038334126
-0.032125497
-0.027232002
-0.02393672
-0.02322053
-0.025329083
-0.029684048
-0.034457621
-0.038623827
-0.026186456
-0.020929044
-0.016986459
-0.014421987
-0.013871728
-0.015499426
-0.018879014
-0.022789381
-0.026487119
-0.016141489
-0.012003945
-0.0091480838
-0.0072432184
-0.0068327755
-0.0080467106
-0.010511767
-0.013395756
-0.016447518
-0.0076474107
-0.0051297619
-0.0034841484
-0.0022428305
-0.0019706048
-0.002773184
-0.0042894737
-0.0057449623
-0.0076519676
0.28041979
0.28106354
0.28320532
0.28565098
0.28751563
0.28808591
0.28713589
0.28503511
0.28257418
0.28063027
0.28261455
0.27924055
0.28074475
0.28357687
0.28665779
0.2888718
0.289359
0.28792032
0.2851263
0.28201939
0.2797048
0.27924593
0.27685418
0.27881562
0.28286762
0.28740374
0.29073524
0.29147899
0.28930307
0.28514397
0.28063849
0.27739209
0.27678165
0.2722312
0.27509465
0.28138114
0.28863169
0.29411456
0.29535981
0.29175077
0.28500395
0.27792639
0.27294461
0.27214196
0.26415871
0.26844159
0.27833161
0.29014063
0.29939019
0.30153586
0.2953788
0.28419346
0.27288381
0.26515024
0.26405109
0.25069788
0.25681919
0.2719295
0.29088002
0.30645168
0.31016259
0.29963622
0.28123163
0.26354865
0.25196395
0.25057322
0.22904229
0.23688733
0.25838227
0.28725694
0.31265466
0.31893798
0.30138383
0.27231425
0.24632379
0.23029209
0.22891284
0.1956715
0.20359361
0.23011249
0.2692719
0.30697042
0.3166716
0.28996401
0.2485583
0.21499219
0.19595911
0.19557914
0.14738359
0.15078531
0.17407159
0.21098511
0.23655988
0.24089816
0.22720667
0.19176543
0.16050608
0.1446989
0.14741097
0.083997877
0.075067583
0.072725931
0.046391509
0.0037497082
-0.0042712804
0.023156171
0.06474768
0.075008151
0.07549349
0.084275498
0.012566419
-0.014611543
-0.067407536
-0.17748316
-0.27141637
-0.29177355
-0.23240597
-0.11687022
-0.034499077
-0.0030815557
0.013188729
-0.051413809
-0.090164004
-0.16850806
-0.29000736
-0.3862197
-0.40720655
-0.34469206
-0.22938824
-0.12147025
-0.070282235
-0.050530521
-0.092625024
-0.12588792
-0.18629713
-0.255545
-0.30531662
-0.31762585
-0.28447575
-0.22262731
-0.15128337
-0.10776683
-0.091743592
-0.10743087
-0.12583067
-0.15532805
-0.17980462
-0.19659408
-0.20073755
-0.18970521
-0.16839127
-0.13916315
-0.11572585
-0.10675313
-0.10282339
-0.10799236
-0.1147665
-0.11743796
-0.11915628
-0.11968738
-0.11858225
-0.11628591
-0.11196305
-0.10516211
-0.10239374
-0.088119538
-0.085132869
-0.08091107
-0.074996395
-0.071264332
-0.070546086
-0.072888001
-0.077760195
-0.083866883
-0.086631699
-0.087929935
-0.070301775
-0.063915079
-0.055796698
-0.04769367
-0.042672105
-0.041652305
-0.044780262
-0.051453892
-0.060364476
-0.066930135
-0.070286376
-0.05327188
-0.046292607
-0.037748809
-0.030053453
-0.025319629
-0.024345503
-0.027285668
-0.033630887
-0.042215588
-0.049299148
-0.053344375
-0.038568806
-0.032184223
-0.024664389
-0.01823232
-0.014283248
-0.013466939
-0.015917038
-0.02122384
-0.028449254
-0.034768392
-0.038682809
-0.026434352
-0.020962579
-0.014981278
-0.0099433155
-0.0068063365
-0.0061600968
-0.0081009938
-0.01229754
-0.01793128
-0.023045052
-0.026563339
-0.016436796
-0.012024913
-0.0076671611
-0.0038504053
-0.0014537164
-0.00095449631
-0.0024441294
-0.0056351003
-0.0098462727
-0.013607013
-0.016571651
-0.0077834252
-0.0051326258
-0.0025362306
0.00010308676
0.0018697734
0.0022480942
0.0011314909
-0.0011544978
-0.0039209098
-0.0057470477
-0.0079214282
0.28048823
0.282485
0.28568154
0.2891175
0.29167174
0.29244603
0.29115728
0.28826954
0.28477965
0.28179334
0.28029953
0.27984368
0.28259161
0.28669073
0.29093442
0.29392948
0.29458484
0.29264904
0.28884553
0.28449451
0.28093177
0.27942619
0.27757261
0.28144858
0.28744252
0.29383677
0.29845468
0.29947904
0.29647739
0.29067973
0.28422101
0.2791035
0.27718482
0.27319826
0.27917003
0.28868068
0.29925131
0.3071491
0.30893394
0.30375118
0.29399596
0.2835404
0.27556598
0.27276225
0.2655233
0.27483459
0.2902077
0.30818394
0.3222743
0.32553966
0.31615531
0.29914185
0.2818333
0.26921186
0.26501057
0.25251291
0.26655132
0.29097883
0.32160259
0.3472255
0.35338259
0.33593337
0.30593762
0.27749591
0.25803113
0.25201119
0.23106418
0.25067346
0.28741524
0.3382778
0.38472971
0.39639987
0.36387407
0.31161623
0.2667335
0.23865764
0.2309158
0.19691858
0.22051078
0.26953754
0.34721336
0.41711841
0.43230169
0.38730622
0.30527487
0.24116395
0.20583555
0.19801066
0.1455799
0.16551424
0.21138642
0.25653001
0.27417544
0.2807075
0.26560354
0.2390622
0.18453341
0.15279899
0.14962543
0.075647352
0.074127511
0.046101587
-0.036530302
-0.038330562
-0.017304852
-0.050107218
0.0037122943
0.067312539
0.075161519
0.084919527
-0.004226882
-0.046775528
-0.17859649
-0.34392267
-0.3831203
-0.35855787
-0.38271031
-0.26915562
-0.096136874
-0.018462033
0.010880536
-0.072263269
-0.13754626
-0.29057075
-0.4680255
-0.57164124
-0.67333972
-0.54252237
-0.37929472
-0.20309383
-0.096264898
-0.055352672
-0.10953007
-0.16213584
-0.25601498
-0.35730877
-0.46811974
-0.49891374
-0.41124993
-0.30451858
-0.20761897
-0.12980426
-0.096705933
-0.11664082
-0.14407258
-0.18007783
-0.21372488
-0.2448879
-0.25358598
-0.23034724
-0.19657056
-0.16292063
-0.12720819
-0.11008908
-0.10524456
-0.11289652
-0.11758451
-0.12161833
-0.12597162
-0.12728486
-0.12390871
-0.11940288
-0.11558335
-0.10752471
-0.10399235
-0.086406186
-0.082978952
-0.075070496
-0.068426265
-0.064596471
-0.06389118
-0.066142315
-0.07142868
-0.079015564
-0.084103754
-0.088429837
-0.066636658
-0.058953919
-0.04772824
-0.038523267
-0.032959073
-0.031833525
-0.035248157
-0.042740622
-0.053211047
-0.062908225
-0.070131164
-0.049045704
-0.040834961
-0.030067738
-0.021339638
-0.016104743
-0.015039387
-0.018250374
-0.025341879
-0.035302249
-0.045455
-0.052850677
-0.034542675
-0.027254736
-0.018236059
-0.010943272
-0.0065601622
-0.0056691078
-0.0083537218
-0.014292731
-0.022626345
-0.031489644
-0.038075371
-0.02288684
-0.01700062
-0.0099429932
-0.0041439196
-0.00067268048
3.4893491e-05
-0.0020921529
-0.006809111
-0.013397133
-0.020461868
-0.025951575
-0.013489919
-0.009157917
-0.0038485867
0.00061999138
0.0033542265
0.003916568
0.0022328151
-0.0014504664
-0.0064722863
-0.011674916
-0.016061171
-0.0056742034
-0.0034874549
0.00010575862
0.0034727608
0.0056816909
0.006150494
0.0047623461
0.0018768507
-0.0017332034
-0.0049564619
-0.0077913284
0.28435601
0.2809613
0.28364222
0.28757969
0.29170694
0.29474479
0.29566339
0.29413527
0.29069639
0.28648745
0.28277205
0.28053604
0.27949366
0.28050244
0.28400875
0.28894066
0.29396769
0.29749478
0.29826527
0.29598901
0.29150098
0.28631786
0.28195279
0.27981959
0.27705431
0.27850477
0.28351623
0.29081728
0.29850178
0.30403351
0.30525941
0.30166585
0.29471507
0.28691953
0.28056759
0.27771302
0.27252968
0.27463297
0.28242806
0.29422015
0.30721344
0.3169316
0.31912902
0.31274589
0.30075551
0.28787744
0.27783851
0.27356259
0.26462036
0.26774889
0.28005046
0.29953883
0.32237291
0.34041824
0.344614
0.332557
0.31085946
0.28894241
0.27278352
0.26624672
0.2513982
0.25584437
0.27472491
0.30667716
0.34739345
0.38225504
0.39070013
0.36677799
0.32643255
0.28901172
0.26348053
0.25385865
0.23004192
0.23567984
0.26272893
0.313026
0.38504945
0.45285169
0.46952892
0.42222498
0.34693645
0.28452535
0.24640054
0.23347849
0.1969297
0.20241085
0.23611467
0.30761349
0.41769325
0.50015444
0.51789701
0.46569346
0.36064375
0.26566793
0.21535769
0.20108286
0.14860577
0.15015132
0.17983951
0.23718738
0.27487151
0.34351202
0.37269023
0.30249494
0.25912082
0.20625773
0.16102673
0.15227216
0.084542971
0.075614496
0.067666339
0.0026024587
-0.033962641
0.20087758
0.3077427
0.049966508
-0.042286333
0.047602584
0.07422954
0.085171288
0.011823572
-0.012435054
-0.084213194
-0.27363965
-0.44605573
-0.1493339
0.39648285
-0.089509986
-0.37536642
-0.16497615
-0.037780112
0.0067842069
-0.053142607
-0.086388372
-0.18453769
-0.3857529
-0.5647366
-0.60472063
-0.77114952
-0.82836711
-0.50472922
-0.27788797
-0.12248695
-0.062703734
-0.094273734
-0.12192009
-0.19399681
-0.306047
-0.46824377
-0.73554799
-0.82466113
-0.58514756
-0.3720236
-0.24812611
-0.14917489
-0.10350496
-0.10839235
-0.12302958
-0.15798601
-0.19692777
-0.24508041
-0.3086082
-0.32668985
-0.275741
-0.21852115
-0.1769307
-0.13580941
-0.11441773
-0.10319138
-0.10715025
-0.11493907
-0.11931664
-0.12605472
-0.13593828
-0.1387883
-0.13079352
-0.12204079
-0.11691472
-0.10930973
-0.10613725
-0.088117641
-0.085284969
-0.080149583
-0.071325735
-0.064619317
-0.061529466
-0.061024666
-0.062613452
-0.067531107
-0.075529541
-0.082798836
-0.088570032
-0.070197215
-0.06437658
-0.0548646
-0.042687873
-0.032959309
-0.027265773
-0.026128996
-0.029558864
-0.037392378
-0.048565432
-0.06046683
-0.069206363
-0.053198765
-0.046774146
-0.036877564
-0.025316278
-0.016096468
-0.010635414
-0.0095249183
-0.012862576
-0.020310401
-0.030918916
-0.042687364
-0.051648736
-0.038513773
-0.032613879
-0.023932604
-0.014272853
-0.0065504099
-0.0019856317
-0.001059774
-0.0038451926
-0.010090988
-0.018969548
-0.028893766
-0.036935888
-0.026384545
-0.021382675
-0.014414757
-0.0067942499
-0.00066350465
0.0029680641
0.0037054071
0.001486949
-0.0034749506
-0.010526663
-0.01831841
-0.024900795
-0.016393194
-0.012405056
-0.0072353675
-0.0014420082
0.0033622858
0.0062621085
0.0068553573
0.0050752
0.0011419741
-0.0043060272
-0.010111734
-0.01513844
-0.0078018093
-0.0051684589
-0.0022370054
0.0018788705
0.0056873716
0.0081606747
0.0086842312
0.0071333883
0.0038847993
-0.00022654551
-0.004026375
-0.0071100067
0.28003088
0.281139
0.28402214
0.28818239
0.2925167
0.29570054
0.29666256
0.29506123
0.29145571
0.2870315
0.28309645
0.28064194
0.27939694
0.28069502
0.28435147
0.28946224
0.29466131
0.29830576
0.29910133
0.29674902
0.29210967
0.28674465
0.28221644
0.27964029
0.2770966
0.27877536
0.28401999
0.29160178
0.29957327
0.3053104
0.3065811
0.30285302
0.29564327
0.28755435
0.28095733
0.27730012
0.27259082
0.27504073
0.28322379
0.29551757
0.30906294
0.31920175
0.32149345
0.31483019
0.30232525
0.28890498
0.27844335
0.27280561
0.2647073
0.26837637
0.28133025
0.30175597
0.32573642
0.344731
0.34914756
0.33644298
0.31363002
0.29064509
0.27373604
0.26494824
0.25152157
0.25677871
0.27675124
0.31048855
0.3537124
0.3909109
0.39991138
0.37436074
0.33141315
0.29181961
0.26494653
0.25170608
0.23020823
0.23696573
0.26576799
0.31944097
0.39699344
0.46991505
0.48741163
0.4371114
0.35584476
0.28898815
0.24852224
0.23002996
0.19712114
0.20391689
0.24012639
0.31740576
0.43316049
0.51834934
0.53729536
0.48228646
0.37409292
0.27205511
0.21805298
0.19580432
0.1487461
0.15131766
0.1834205
0.24121865
0.28171496
0.37341771
0.40975258
0.3189754
0.2622678
0.21117763
0.16352512
0.14476272
0.084459699
0.075321275
0.064984099
-0.0064385728
-0.015601483
0.30848348
0.42811291
0.11196664
-0.043984927
0.041499094
0.074006661
0.075746881
0.011340758
-0.015455578
-0.094380635
-0.29530913
-0.40776502
0.39456717
1.000702
0.36636404
-0.38755797
-0.18264945
-0.043177421
-0.0027279413
-0.053923115
-0.091117213
-0.19652582
-0.40035514
-0.6508616
-0.77024648
-0.42781722
-0.80943158
-0.59232108
-0.29565887
-0.12963373
-0.069514958
-0.094966399
-0.12509639
-0.20188723
-0.31820253
-0.49924011
-0.82683252
-0.90087583
-0.64641387
-0.38963732
-0.2577446
-0.15463204
-0.1063391
-0.10876591
-0.12437222
-0.16083881
-0.20065202
-0.25365173
-0.32706301
-0.34410459
-0.28945588
-0.22437282
-0.18024727
-0.13864338
-0.11436253
-0.10324919
-0.10683715
-0.11522559
-0.11959639
-0.12722345
-0.13881638
-0.14181456
-0.13290304
-0.12286455
-0.11731993
-0.1103416
-0.10417265
-0.08802068
-0.084242737
-0.079517621
-0.07045282
-0.063816847
-0.060998389
-0.060537319
-0.061997227
-0.066794166
-0.074873279
-0.082924383
-0.085961958
-0.070125031
-0.063285278
-0.053897828
-0.041573055
-0.0317709
-0.026100069
-0.024969893
-0.028408104
-0.036309618
-0.047617015
-0.059797238
-0.066957638
-0.053082793
-0.045903716
-0.035935847
-0.024282011
-0.014991051
-0.0095015248
-0.0083903548
-0.011756137
-0.019284358
-0.03000049
-0.041873962
-0.049648294
-0.038389736
-0.032023666
-0.023168688
-0.013417694
-0.0056325538
-0.0010419448
-0.00011354244
-0.0029237606
-0.0092275764
-0.01820538
-0.028240526
-0.035109422
-0.026211153
-0.021025657
-0.013830423
-0.0061225318
6.240028e-05
0.0037189001
0.0044589477
0.0022203444
-0.0027914889
-0.0099247295
-0.017825164
-0.02336626
-0.01624863
-0.012161476
-0.0068008946
-0.00092649038
0.0039373619
0.0068657365
0.0074631004
0.0056624668
0.0016799384
-0.0038502431
-0.0097464827
-0.013879875
-0.0075534675
-0.0050692977
-0.0019499723
0.0022679434
0.0061670785
0.0086930295
0.0092269704
0.0076399903
0.0043149197
9.9541652e-05
-0.0038114072
-0.005763481
0.2808824
0.28345822
0.28725973
0.29125882
0.29420636
0.29509694
0.29361209
0.29027442
0.28619799
0.28261613
0.2804435
0.28024908
0.28345835
0.28805192
0.29275808
0.29606566
0.29678729
0.29464957
0.2904412
0.28559735
0.28155538
0.27974691
0.27812418
0.2826889
0.28945727
0.29660935
0.30176055
0.3029003
0.29955052
0.29307601
0.28582927
0.27997587
0.27759662
0.27402528
0.28109247
0.29194497
0.30392766
0.31287748
0.31489611
0.30901535
0.29796166
0.28608953
0.27689766
0.27336829
0.26678001
0.27787248
0.29564046
0.31641441
0.33276079
0.33654519
0.32562973
0.3059326
0.2859644
0.27127839
0.26592347
0.25436132
0.27125452
0.30000463
0.33634614
0.36712881
0.37453649
0.35345458
0.31765694
0.28411515
0.26115245
0.25334608
0.23358046
0.25751802
0.30190949
0.36456641
0.42286961
0.43742708
0.39640307
0.33149331
0.27683957
0.24305504
0.23272479
0.1998472
0.22922521
0.29065356
0.38834753
0.4664871
0.48264726
0.43377925
0.33641346
0.25491845
0.21120966
0.20010306
0.14790933
0.17338507
0.22756089
0.2661503
0.30329861
0.3194651
0.28080727
0.25270747
0.19741592
0.15746367
0.15126626
0.075370944
0.070877336
0.021911363
-0.049439297
0.053569701
0.11122652
-0.020347974
-0.027074698
0.057742301
0.075036233
0.084638361
-0.0088510649
-0.067182545
-0.23478905
-0.38846551
-0.078349625
0.37257154
-0.035991045
-0.32853488
-0.13455782
-0.028483418
0.0073267413
-0.079964165
-0.16321149
-0.3454265
-0.53904708
-0.8400947
-0.82615088
-0.82179225
-0.44491611
-0.24627488
-0.11078288
-0.0612427
-0.11654833
-0.17988333
-0.28465894
-0.41240298
-0.58790279
-0.64673724
-0.49942557
-0.34261555
-0.23185082
-0.14094217
-0.10207118
-0.12018755
-0.15196269
-0.18957918
-0.23052303
-0.27635017
-0.28966454
-0.25332235
-0.20913448
-0.17145199
-0.13235855
-0.11338969
-0.10624177
-0.11412712
-0.11842265
-0.1238566
-0.13089877
-0.13290771
-0.12735985
-0.12101803
-0.11662151
-0.1087831
-0.1055974
-0.085689104
-0.081231945
-0.072746634
-0.066056129
-0.062603002
-0.061971157
-0.063947775
-0.069207524
-0.077091775
-0.083442708
-0.08851421
-0.06519242
-0.056467355
-0.044670367
-0.035171638
-0.029527172
-0.028382227
-0.031855263
-0.039622723
-0.050542203
-0.061571719
-0.069269047
-0.047591215
-0.038445629
-0.02720257
-0.018190144
-0.012831488
-0.011735184
-0.015045506
-0.022383003
-0.032759646
-0.043987872
-0.05165945
-0.033328324
-0.025259702
-0.015854436
-0.0083075506
-0.0038192195
-0.0029078302
-0.005665647
-0.011815685
-0.020497978
-0.030103981
-0.036903299
-0.021955683
-0.015445542
-0.0080542381
-0.0020569051
0.0015078296
0.0022324244
4.1099738e-05
-0.0048373257
-0.011724946
-0.019267812
-0.024878339
-0.01280759
-0.0080101524
-0.0024102975
0.0022594107
0.0050921369
0.0056719165
0.0039237887
8.0548637e-05
-0.0052081455
-0.010810233
-0.015068103
-0.005344228
-0.0027550804
0.0011545397
0.0047834303
0.0071474595
0.0076485402
0.0061592777
0.0030531519
-0.00086011117
-0.004468679
-0.0069606465
0.28039487
0.2822157
0.28517862
0.28839423
0.29079408
0.29152077
0.29030536
0.28759074
0.28432851
0.28157091
0.28008961
0.27965531
0.28176074
0.2852777
0.28897789
0.29160499
0.29217876
0.29047394
0.28714116
0.28336854
0.28037153
0.27938376
0.277444
0.2802226
0.28531735
0.29083525
0.2948391
0.29572541
0.29311406
0.2880911
0.28254797
0.27829785
0.27705825
0.27309613
0.27722548
0.28521562
0.29419528
0.30091941
0.3024337
0.29801048
0.28970381
0.28086026
0.27429817
0.27253537
0.26545534
0.27172352
0.28446442
0.29941609
0.31109447
0.31378403
0.30599782
0.29186619
0.27748292
0.26720482
0.26462273
0.25258951
0.26172938
0.28158906
0.30634001
0.32679928
0.33164897
0.31774751
0.29365717
0.27059699
0.2549835
0.25138605
0.23161302
0.24371458
0.27278322
0.31222901
0.34754031
0.35621188
0.33160916
0.29157214
0.2564477
0.23440144
0.2299911
0.19871318
0.2117859
0.24912503
0.30620377
0.36160417
0.37458913
0.3365119
0.27538993
0.22768847
0.20076007
0.19680458
0.15004149
0.15768916
0.1922436
0.23975703
0.25952792
0.26237973
0.25268159
0.21706861
0.17192081
0.14864256
0.14837289
0.084573817
0.074843674
0.06434435
0.0027997818
-0.042170417
-0.045114714
-0.027307247
0.040471941
0.073256209
0.075551728
0.084201192
0.0094369106
-0.029010972
-0.11836397
-0.27121961
-0.37742576
-0.38752768
-0.32892043
-0.19557693
-0.061651625
-0.0096472997
0.011411027
-0.057497881
-0.11263744
-0.23073246
-0.3814078
-0.50812691
-0.59264803
-0.44418991
-0.30607198
-0.1598147
-0.0818468
-0.05357225
-0.098703852
-0.14327577
-0.22333923
-0.30567343
-0.37333816
-0.3900357
-0.34253633
-0.26451657
-0.17968551
-0.11861929
-0.094622259
-0.1114865
-0.13441469
-0.16863235
-0.19703597
-0.21911124
-0.22446332
-0.20895883
-0.18305495
-0.15270753
-0.12200323
-0.10856578
-0.10464418
-0.11011595
-0.1163223
-0.11954518
-0.12223932
-0.12284635
-0.1209078
-0.11795
-0.11454118
-0.10719399
-0.10321595
-0.088391736
-0.084045009
-0.077727068
-0.071448752
-0.067581627
-0.066751174
-0.069135777
-0.074385674
-0.081498632
-0.086045808
-0.088147616
-0.069680439
-0.061553068
-0.051402673
-0.042718839
-0.037390801
-0.036267587
-0.039576882
-0.046772448
-0.056645263
-0.065284455
-0.070169896
-0.052221463
-0.043628419
-0.033577684
-0.025308817
-0.020292407
-0.019249546
-0.02235296
-0.029161508
-0.038596237
-0.047564681
-0.053079247
-0.03741927
-0.029615879
-0.021176065
-0.014259536
-0.010069342
-0.0092004417
-0.011795337
-0.017478833
-0.025374224
-0.033251199
-0.038354759
-0.025311831
-0.018825451
-0.012258452
-0.0067795576
-0.0034545166
-0.0027704782
-0.0048234702
-0.0093420983
-0.015524925
-0.021857412
-0.026185938
-0.015460448
-0.010476062
-0.005606222
-0.0014260216
0.001160412
0.00169629
9.0167047e-05
-0.0033882486
-0.0080637729
-0.012710748
-0.016181342
-0.0072523193
-0.0042768623
-0.0011353269
0.0018966454
0.003900833
0.0043286299
0.0030602494
0.00044424256
-0.0027799763
-0.0054473589
-0.0077031101
0.27952385
0.28085604
0.28272939
0.28491893
0.28660321
0.28711786
0.28625266
0.28435355
0.28215584
0.28047507
0.27932333
0.28003944
0.28218189
0.28464067
0.28643931
0.28683516
0.28565469
0.28339479
0.28095719
0.27973303
0.27691153
0.2778164
0.28082033
0.28438729
0.287059
0.28765772
0.28589343
0.28257688
0.2790879
0.27753533
0.27227426
0.27352731
0.27814107
0.28374321
0.28805082
0.28903307
0.28616726
0.28089415
0.27548282
0.27323575
0.26417808
0.26596828
0.27314438
0.28209185
0.28916944
0.29081017
0.28605909
0.27752181
0.2690101
0.26566963
0.25067691
0.25308751
0.26386912
0.27783965
0.28932588
0.29204164
0.28423174
0.27063955
0.25763106
0.25288927
0.22896531
0.23173323
0.24670793
0.26719354
0.28496797
0.28927943
0.27696596
0.25648595
0.23796427
0.23196297
0.19554453
0.19755818
0.21541674
0.24176152
0.26628684
0.2723964
0.25500227
0.22769899
0.20482547
0.19898112
0.14726036
0.14596046
0.16087176
0.1852059
0.20694209
0.2113537
0.19729637
0.17185158
0.15176829
0.14993027
0.084008855
0.075549744
0.075065443
0.067384463
0.047297528
0.041108125
0.057474497
0.073038185
0.075044712
0.083666882
0.012860339
-0.0049709745
-0.035050212
-0.097564714
-0.16660396
-0.18342607
-0.13460089
-0.061751795
-0.016414083
0.0074692113
-0.05083963
-0.073696851
-0.12240262
-0.20500838
-0.27959525
-0.29635449
-0.24618413
-0.15964537
-0.093277352
-0.060172411
-0.09197846
-0.1111715
-0.15217174
-0.20893785
-0.24927329
-0.25810836
-0.23167363
-0.17945844
-0.12853184
-0.10113388
-0.1069115
-0.11823509
-0.13977291
-0.16355128
-0.17750264
-0.18035914
-0.17128439
-0.15256392
-0.12729543
-0.11318071
-0.10250864
-0.10641879
-0.11229951
-0.11587175
-0.11716798
-0.11732849
-0.11649128
-0.11444261
-0.108408
-0.10560242
-0.087993814
-0.086984883
-0.083996872
-0.079132091
-0.075630236
-0.074843585
-0.076995161
-0.081437814
-0.084985272
-0.088726854
-0.070300597
-0.066811894
-0.060402388
-0.053249795
-0.048598742
-0.047576958
-0.05047312
-0.056606297
-0.063603163
-0.069431064
-0.053326051
-0.049000239
-0.042216297
-0.035307179
-0.030923663
-0.029962576
-0.0327089
-0.038566701
-0.045909515
-0.051456979
-0.038635549
-0.034412978
-0.028434186
-0.022618748
-0.018962495
-0.018173175
-0.020459913
-0.025351521
-0.03179336
-0.036370519
-0.026490257
-0.022746809
-0.017911733
-0.013384464
-0.010515136
-0.0098985997
-0.011697218
-0.015510414
-0.020568362
-0.024233961
-0.016486689
-0.013360114
-0.0098303578
-0.0064600735
-0.0042931672
-0.003829589
-0.0051893401
-0.0080558932
-0.011755739
-0.014462892
-0.0078060595
-0.0057241546
-0.0039091388
-0.0017226831
-0.00021444482
0.00011467429
-0.00084961291
-0.0027766368
-0.0050157319
-0.0062448237
0.27989448
0.28079038
0.28194007
0.28289827
0.28319667
0.28268778
0.28161532
0.28049422
0.27970438
0.27927037
0.27987131
0.28108402
0.28208356
0.28231995
0.28162926
0.28041713
0.27975454
0.27918386
0.27689788
0.27757586
0.27927287
0.28071336
0.28107216
0.28005709
0.2783473
0.27755852
0.27680002
0.27224499
0.27315596
0.27576379
0.27801035
0.27857814
0.27699101
0.27435327
0.27326125
0.27212145
0.26412113
0.26539775
0.26944906
0.27299163
0.27389657
0.2713852
0.26726545
0.26569639
0.26395868
0.250577
0.25225199
0.25831947
0.26373815
0.26513895
0.26127188
0.25504546
0.25291808
0.25036809
0.22880453
0.23061309
0.23900045
0.24671299
0.24874048
0.24317193
0.23445263
0.23198918
0.22855647
0.19531451
0.19628749
0.20621943
0.21571631
0.2182692
0.21128765
0.2007779
0.1989911
0.19506878
0.14698631
0.14496548
0.15316407
0.16137907
0.16366108
0.15743206
0.14859032
0.14991178
0.14684527
0.083773105
0.075583475
0.075364813
0.074394534
0.073887424
0.074796174
0.075390057
0.083606833
0.083896501
0.012773368
-0.0032650241
-0.018641436
-0.038141092
-0.043588015
-0.0288853
-0.0099059434
0.0073698274
0.013284694
-0.050766469
-0.070699315
-0.096854724
-0.12326981
-0.13008021
-0.11102804
-0.082107491
-0.060282257
-0.049938235
-0.091864354
-0.10825394
-0.13052644
-0.15000725
-0.15492342
-0.14090434
-0.11877575
-0.10122255
-0.091017634
-0.10686883
-0.11617074
-0.12790082
-0.13646495
-0.13879252
-0.13214782
-0.12202582
-0.11323317
-0.10623757
-0.10252769
-0.10552106
-0.10808946
-0.10971111
-0.11040416
-0.10857872
-0.10704986
-0.10561308
-0.10218956
-0.088054646
-0.086898121
-0.084518877
-0.083023032
-0.082934225
-0.08327466
-0.085831744
-0.088718523
-0.087908841
-0.070375114
-0.067125235
-0.063178149
-0.060580635
-0.059773957
-0.061455011
-0.065068327
-0.069417259
-0.070314318
-0.053364474
-0.049436282
-0.045616297
-0.042729166
-0.04184398
-0.043904944
-0.047370318
-0.051446688
-0.053398957
-0.038645212
-0.034866402
-0.031584305
-0.028907106
-0.028210246
-0.030040477
-0.03309704
-0.036373486
-0.038758163
-0.026493434
-0.023110469
-0.020517354
-0.01832094
-0.01779747
-0.01922108
-0.021745394
-0.024253815
-0.026649067
-0.016445071
-0.013647357
-0.011715349
-0.010110607
-0.0097215081
-0.010778977
-0.012635671
-0.014499608
-0.016606807
-0.0076418706
-0.0057700293
-0.0049838201
-0.0040238393
-0.0037942973
-0.004459446
-0.0054011253
-0.0062980098
-0.0079418427
0.28285042
0.28045214
0.28066678
0.28074882
0.28052569
0.28016408
0.27941737
0.27958104
0.27995517
0.27975093
0.27983297
0.2794486
0.2769615
0.2773526
0.27786158
0.2774213
0.27768984
0.2771233
0.27234601
0.27295346
0.27373186
0.27294272
0.27347249
0.27260666
0.26428719
0.26523321
0.26644392
0.26510545
0.26604071
0.26470035
0.25084351
0.25226971
0.25408809
0.25188116
0.25347328
0.25146598
0.22921158
0.23120737
0.23373684
0.23021275
0.23284955
0.23006111
0.19588099
0.19831485
0.2013518
0.19596811
0.20019828
0.19684303
0.14766069
0.14989375
0.15250649
0.14485712
0.15128584
0.14834715
0.084384927
0.085063873
0.085285489
0.075702887
0.084531461
0.084082071
0.013082684
0.010808696
0.0066781044
-0.0029441436
0.0070848159
0.011203514
-0.050846765
-0.055651594
-0.063021857
-0.069842437
-0.061546268
-0.053809709
-0.092166315
-0.097120371
-0.10390348
-0.1066674
-0.10233498
-0.094816504
-0.10716959
-0.11049887
-0.11479593
-0.11463673
-0.11356715
-0.10867762
-0.1027426
-0.10433612
-0.1064235
-0.10434397
-0.10568042
-0.10323548
-0.08818599
-0.088683821
-0.0887589
-0.08605971
-0.088519101
-0.088106246
-0.070459408
-0.070299563
-0.069331988
-0.067008897
-0.069239553
-0.070091911
-0.053458871
-0.052965787
-0.051737671
-0.049669244
-0.051618866
-0.052978117
-0.038757422
-0.038157687
-0.036999479
-0.035116406
-0.036869951
-0.038241535
-0.026611305
-0.026017348
-0.02494794
-0.023369265
-0.024857589
-0.026066492
-0.016591824
-0.016100266
-0.015164361
-0.013876866
-0.015067317
-0.016068424
-0.0079143081
-0.0078108821
-0.0071314989
-0.0057451159