/*--------------------------------*- C++ -*----------------------------------*\
| =========                 |                                                 |
| \\      /  F ield         | OpenFOAM: The Open Source CFD Toolbox           |
|  \\    /   O peration     | Version:  2406                                  |
|   \\  /    A nd           | Website:  www.openfoam.com                      |
|    \\/     M anipulation  |                                                 |
\*---------------------------------------------------------------------------*/
FoamFile
{
    version     2.0;
    format      ascii;
    arch        "LSB;label=32;scalar=64";
    class       surfaceScalarField;
    location    "200";
    object      phi;
}
// * * * * * * * * * * * * * * * * * * * * * * * * * * * * * * * * * * * * * //

dimensions      [0 3 -1 0 0 0 0];

oriented        oriented;

internalField   nonuniform List<scalar> 
214131
(
-3.3137841e-06
0.00099028035
-0.00013501774
-5.767584e-06
1.214938e-05
0.0020781493
0.00011835767
-0.0012121989
5.0458042e-07
-3.073115e-06
0.001214768
-0.0023841654
-2.0275938e-07
3.5764957e-07
-8.7312223e-06
0.0023927432
-0.0012169196
-6.127965e-08
0.0012177149
-7.3369947e-07
-0.0023990387
-2.3567324e-08
5.6268612e-08
0.002402019
-3.0115003e-06
-0.0012213952
-2.0729747e-07
0.001223111
-1.5080471e-06
-0.002408913
-1.6080918e-08
1.1779565e-07
0.0024135447
-4.7321567e-06
-0.001230043
-4.4316114e-07
0.0012330594
-2.5730052e-06
-0.0024263902
-2.0780489e-08
2.2380734e-07
0.0024336138
-7.425296e-06
-0.0012447563
-7.9903523e-07
0.0012497005
-4.1446292e-06
-0.0024556191
-3.4466469e-08
3.9745506e-07
0.0024667334
-1.147698e-05
-0.0012683868
-1.3378937e-06
0.0012760996
-6.3744286e-06
-0.0025023242
-2.2713363e-08
6.3454357e-07
0.0025190368
-1.7323805e-05
-0.001304399
-2.0807548e-06
0.0013157188
-9.2392142e-06
-0.0025733718
6.4613704e-10
9.5835844e-07
0.0025974159
-2.5005345e-05
-0.0013555955
-2.9573025e-06
0.0013708282
-1.2275577e-05
-0.002674446
4.3216173e-08
1.3286163e-06
0.0027064957
-3.34235e-05
-0.0014213379
-3.6999542e-06
0.0014393341
-1.4296593e-05
-0.0028045247
1.1184609e-07
1.5994098e-06
0.002842277
-3.9469126e-05
-0.0014938404
-3.8687712e-06
0.0015113139
-1.3605244e-05
-0.0029483059
1.9794084e-07
1.5523149e-06
0.0029850051
-3.8452465e-05
-0.0015577899
-3.2430335e-06
0.0015705777
-9.5452994e-06
-0.0030751517
2.7180295e-07
1.0795155e-06
0.0031022246
-2.8427882e-05
-0.0015990353
-2.1477395e-06
0.0016052025
-4.0200601e-06
-0.0031565912
3.1313448e-07
3.7513185e-07
0.0031701205
-1.4219812e-05
-0.0016147847
-1.1174341e-06
0.0016154724
4.2932126e-07
-0.0031873319
3.1941945e-07
-2.3569974e-07
0.0031898625
-2.6149321e-06
-0.0016119317
-3.7589408e-07
0.0016093469
2.9604031e-06
-0.0031813708
3.0210153e-07
-6.1568964e-07
0.0031773691
4.3149196e-06
-0.0015990559
1.8091846e-08
0.00159512
3.9176122e-06
-0.0031558241
2.7237964e-07
-7.6650334e-07
0.003149199
7.1200742e-06
-0.0015827773
2.8356481e-07
0.0015786783
3.8152616e-06
-0.0031238023
2.4561472e-07
-8.3227188e-07
0.0031168368
7.5524534e-06
-0.0015668533
4.6799492e-07
0.0015631388
3.2462901e-06
-0.0030921788
2.5031819e-07
-8.4674262e-07
0.0030858914
6.8846071e-06
-0.0015527328
5.2200905e-07
0.0015495245
2.6859439e-06
-0.0030637953
2.5036058e-07
-7.9100881e-07
0.0030583939
5.9423531e-06
-0.0015405559
4.0035231e-07
0.0015377502
2.4051771e-06
-0.0030386924
3.442787e-07
-7.219391e-07
0.0030339419
5.1289198e-06
-0.0015296212
1.6878867e-07
0.0015269038
2.5485345e-06
-0.0030153875
5.6547192e-07
-7.7872781e-07
0.0030103242
5.2771323e-06
-0.001514193
-7.8063379e-07
0.0014988269
1.6146791e-05
1.4477663e-06
-0.0029786235
-1.9716179e-06
0.0029459198
3.3227935e-05
-9.5999464e-06
-9.6701657e-05
2.5622564e-05
0.0033562816
1.4192551e-05
-2.114802e-05
-1.6166584e-05
1.4353152e-05
0.0029642434
3.9962115e-05
-3.0194125e-05
-9.9103663e-06
7.1468873e-06
0.0028587545
2.7325222e-05
-1.463375e-05
4.9641889e-08
-2.1253193e-06
0.0027942511
1.4076844e-05
-3.6928821e-05
9.9448966e-06
-1.1802328e-05
0.002884964
3.3421219e-05
-1.5545354e-05
1.6168569e-05
-1.6041395e-05
0.0030169806
3.6963733e-05
9.6699492e-05
9.2215527e-05
0.0022814085
6.2244578e-05
-0.0033902089
1.0651777e-07
1.7713901e-07
5.6345003e-07
1.4089902e-06
0.0033879583
-7.0739438e-06
-0.011452149
-9.8312156e-06
4.1616001e-05
0.011341451
0.00013310252
-1.7529925e-05
-1.719354e-06
2.1507119e-06
-2.8305525e-05
-2.9123575e-06
1.2264821e-06
-2.196096e-05
-0.011288522
-3.6862077e-05
2.1526648e-05
0.011240595
8.6420522e-05
-1.5139181e-05
5.1065264e-06
8.8625282e-06
1.0147147e-05
-0.011108315
-2.2714125e-07
-2.1196266e-05
0.01106824
5.1379682e-05
-2.4627672e-05
-0.011430169
-4.1494044e-05
0.011352761
0.00012389808
3.6683111e-05
-2.2323774e-05
3.1532266e-06
2.1442046e-06
-0.0028506603
-5.2442188e-06
9.8109012e-06
-6.4921052e-06
2.2728869e-05
0.0028298619
-0.0024320662
-1.9805716e-07
9.0712089e-07
-8.8650746e-07
0.0024322457
7.2093567e-07
-0.0033877693
5.0305898e-07
-9.5016509e-07
0.0033893567
-1.8556658e-06
2.9890019e-06
2.6222139e-07
-0.011288938
8.6445619e-07
0.011272862
-3.8509386e-06
-8.0423079e-08
5.2745922e-06
7.6599159e-06
3.0378292e-06
-8.5669041e-06
8.5123167e-06
-3.9604218e-07
-2.179525e-06
-0.011201854
2.113841e-06
0.011188847
-9.8365353e-06
-1.7015186e-06
1.1775848e-05
1.3259128e-05
2.3658471e-05
-0.011047129
-1.2470452e-07
-1.874934e-06
0.011041359
-1.5857732e-05
-9.612916e-07
-0.011302941
-6.7838697e-07
0.011286632
-3.8508118e-06
1.973617e-06
1.7018428e-07
1.0431914e-05
9.2512642e-06
1.9844803e-06
-0.0028185104
-2.9898245e-07
8.566043e-07
0.0028155474
4.2623162e-07
-0.0024341105
-5.4509884e-07
2.7223831e-07
0.0024357486
-1.3629567e-06
1.5782207e-06
-0.0033993956
1.2675678e-06
-2.5707132e-06
0.0034041355
-5.0094386e-06
9.1198783e-06
4.0777773e-06
-0.011278263
-1.8069682e-05
0.011299598
-6.3491418e-05
7.8645288e-06
1.0779888e-05
1.286246e-05
6.1871613e-06
-2.306118e-06
1.1664985e-05
1.0261157e-05
1.3450821e-05
-0.011192679
-6.7911013e-06
0.011210177
-8.3463101e-05
9.1175843e-06
1.9197167e-05
2.0758473e-05
6.3249495e-05
-0.011047821
-1.214869e-07
7.046262e-06
0.011065806
-8.812606e-05
8.7800198e-06
-0.011290514
1.8322971e-05
0.011309607
-7.4457866e-05
-1.3705239e-05
9.548495e-06
1.6893403e-05
1.5551886e-05
6.3220227e-06
-0.0028229376
-4.132101e-06
3.8671723e-06
0.0028242147
-7.3293463e-06
-0.0024436227
-1.3333485e-06
7.1921197e-07
0.0024472267
-2.9881089e-06
2.6896274e-06
-0.0034238292
2.2982597e-06
-4.5994132e-06
0.0034323711
-8.9257809e-06
1.6550639e-05
8.1464594e-06
-0.011335486
-3.6227125e-05
0.011386747
-0.00012363614
1.6285975e-05
1.8281034e-05
2.0648033e-05
1.0192369e-05
2.6361194e-06
1.5887006e-05
2.2352606e-05
2.779261e-05
-0.011240904
-1.4513004e-05
0.011285999
-0.00016534573
2.1672025e-05
3.0533227e-05
3.2444495e-05
0.00011628524
-0.01109579
-1.4955207e-07
1.4828848e-05
0.011139346
-0.00017448154
1.9372037e-05
-0.011342775
3.6554913e-05
0.011390934
-0.00014735678
-2.8115227e-05
1.9686776e-05
2.6702086e-05
2.5023672e-05
1.1442047e-05
-0.0028407964
-8.2204406e-06
7.1794451e-06
0.0028456572
-1.5258297e-05
-0.0024617075
-2.3923057e-06
1.3183478e-06
0.00246794
-5.1572774e-06
4.2972923e-06
-0.003465465
3.8398558e-06
-7.5725275e-06
0.0034795099
-1.4607706e-05
2.7337348e-05
1.3878903e-05
-0.011455631
-6.0966217e-05
0.01154541
-0.00020703212
2.8001087e-05
2.9374727e-05
3.2486222e-05
1.6036245e-05
8.8377594e-06
2.2291731e-05
3.9295269e-05
4.7150773e-05
-0.011347821
-2.4829022e-05
0.011429807
-0.00028081891
3.9100349e-05
4.7804947e-05
5.0343126e-05
0.00019315012
-0.01119894
-1.7025671e-07
2.5186061e-05
0.011278146
-0.00029732925
3.4113337e-05
-0.011456366
6.1359018e-05
0.011542413
-0.00024892311
-4.7524498e-05
3.3865783e-05
4.1660193e-05
3.9429858e-05
1.8846683e-05
-0.0028733957
-1.3971598e-05
1.1889448e-05
0.0028829854
-2.6351484e-05
-0.002491991
-3.9682871e-06
2.2109442e-06
0.0025021012
-8.3519698e-06
6.5506983e-06
-0.0035320389
6.0570284e-06
-1.1812129e-05
0.0035538898
-2.2643409e-05
4.27143e-05
2.1947049e-05
-0.011660197
-9.5896018e-05
0.011804673
-0.00032554084
4.4566602e-05
4.5089593e-05
4.9455282e-05
2.4219186e-05
1.7425582e-05
3.1568515e-05
6.3380189e-05
7.4597379e-05
-0.011536396
-3.9510847e-05
0.011672948
-0.00044778322
6.3820549e-05
7.2719986e-05
7.6261651e-05
0.00030330184
-0.011381437
-1.3028661e-07
3.9805928e-05
0.011514376
-0.0004758623
5.5004299e-05
-0.011653405
9.6322218e-05
0.011794383
-0.00039461351
-7.4957066e-05
5.3965138e-05
6.3222431e-05
6.0113069e-05
2.9394264e-05
-0.0029267616
-2.2058257e-05
1.8537009e-05
0.0029429885
-4.2098195e-05
-0.0025401338
-6.2249469e-06
3.4925072e-06
0.0025557595
-1.289573e-05
9.4236686e-06
-0.0036328654
8.9128013e-06
-1.7277633e-05
0.0036647695
-3.2964043e-05
6.266406e-05
3.22475e-05
-0.011983725
-0.00014122568
0.012201727
-0.0004808215
6.612779e-05
6.5072993e-05
7.1279332e-05
3.4407991e-05
2.8642042e-05
4.3661604e-05
9.5014835e-05
0.00011054334
-0.01184546
-5.8847665e-05
0.012060053
-0.00067268156
9.6371721e-05
0.00010503806
0.00011005476
0.00044807738
-0.011683167
1.5487461e-08
5.8926369e-05
0.011894432
-0.00071818337
8.2398481e-05
-0.011970848
0.0001416553
0.012188106
-0.00058862647
-0.00011077149
8.0218635e-05
9.1176256e-05
8.6760813e-05
4.3076076e-05
-0.0030090925
-3.2374984e-05
2.7046148e-05
0.0030340306
-6.2684469e-05
-0.0026127934
-9.1317914e-06
5.1598095e-06
0.002635504
-1.8743619e-05
1.2459342e-05
-0.0037751243
1.1904489e-05
-2.3065736e-05
0.0038177471
-4.3926408e-05
8.4104813e-05
4.2959495e-05
-0.012461557
-0.00018959164
0.012763026
-0.00065025117
8.9578054e-05
8.5638555e-05
9.4156318e-05
4.4431359e-05
4.0963204e-05
5.6555576e-05
0.00012972979
0.00014928439
-0.012321851
-7.9876112e-05
0.012632824
-0.00092770961
0.00013234618
0.0001391879
0.00014610318
0.00060615529
-0.012153798
3.3771823e-07
7.9412174e-05
0.012463834
-0.00099589834
0.00011247358
-0.012450256
0.00018997027
0.012758254
-0.00080546373
-0.00014923507
0.0001087922
0.00012079279
0.00011468659
5.7884119e-05
-0.003127786
-4.3113914e-05
3.5970646e-05
0.0031623027
-8.5263465e-05
-0.0027149857
-1.2191531e-05
6.9562414e-06
0.0027452077
-2.4994781e-05
1.4539808e-05
-0.0039563449
1.3806765e-05
-2.6924339e-05
0.0040063245
-5.1411058e-05
9.8750607e-05
4.9532629e-05
-0.013100689
-0.00022029515
0.013461891
-0.00076599891
0.00010613056
9.7909703e-05
0.00010857005
4.9396411e-05
4.9818772e-05
6.4948677e-05
0.00015396471
0.00017383849
-0.012989179
-9.3361367e-05
0.013380386
-0.0011130023
0.00015801244
0.00016027702
0.00016903535
0.00071313866
-0.012821593
8.7969408e-07
9.2022669e-05
0.013219369
-0.0012038516
0.00013387151
-0.013107518
0.00022058734
0.013485268
-0.00095901971
-0.00017333275
0.00012864104
0.00013961384
0.0001318413
6.8428482e-05
-0.0032827214
-4.9728614e-05
4.1696612e-05
0.0033240723
-0.00010175915
-0.0028447478
-1.4180617e-05
8.2280257e-06
0.0028800745
-2.9385297e-05
1.4061446e-05
-0.0041550852
1.3009523e-05
-2.5820248e-05
0.0042034797
-4.9656378e-05
9.4554459e-05
4.576584e-05
-0.013826587
-0.00020613459
0.014170559
-0.00072662574
0.00010272928
9.0304538e-05
0.00010175832
4.3513148e-05
4.832896e-05
6.1763528e-05
0.00014688377
0.00016263701
-0.013788064
-8.7651694e-05
0.014181555
-0.0010722611
0.0001518532
0.00014774599
0.00015722852
0.00067293689
-0.013637804
1.1025818e-06
8.6059809e-05
0.014044104
-0.0011664804
0.00012915023
-0.013872386
0.00020660499
0.014242645
-0.00091938679
-0.0001621817
0.00012312382
0.00013041899
0.00012192814
6.6970281e-05
-0.0034560745
-4.6018205e-05
3.930658e-05
0.0034958074
-0.00010000555
-0.0029866862
-1.3473039e-05
8.0881104e-06
0.0030208639
-2.8802539e-05
1.0295311e-05
-0.0043308398
9.0258749e-06
-1.8703507e-05
0.0043664862
-3.6275044e-05
6.7208108e-05
3.0189681e-05
-0.014470206
-0.0001453051
0.014708171
-0.00050471903
7.4355792e-05
6.1021003e-05
7.1230717e-05
2.6987177e-05
3.4462332e-05
4.6532421e-05
0.00010173254
0.00011608092
-0.014529695
-6.406622e-05
0.014799793
-0.00073812417
0.00010659826
9.9513151e-05
0.00010808989
0.00046539814
-0.014401687
2.1142015e-06
6.0980264e-05
0.014670432
-0.00079732372
9.180345e-05
-0.014567763
0.00014612439
0.014826827
-0.00064078586
-0.00011533206
8.6310929e-05
9.0269098e-05
8.2462762e-05
5.0276481e-05
-0.0036091643
-3.0507528e-05
2.7212568e-05
0.0036365972
-7.442754e-05
-0.0031121679
-9.543467e-06
6.2254562e-06
0.0031374858
-2.2006714e-05
4.7294578e-06
-0.0044459279
3.6831584e-06
-8.7491329e-06
0.0044634092
-1.7151473e-05
2.9911101e-05
1.0224352e-05
-0.014877605
-6.688914e-05
0.014978516
-0.00021818987
3.4880926e-05
2.4852505e-05
3.263626e-05
8.2276046e-06
1.5560856e-05
2.7824098e-05
4.2048544e-05
5.6848734e-05
-0.014970119
-3.6396553e-05
0.015042743
-0.00027089194
4.5786811e-05
4.1704025e-05
4.8220148e-05
0.00020259754
-0.01482841
5.8802835e-06
2.6917419e-05
0.014882139
-0.00028918588
4.0855608e-05
-0.015004165
6.6559779e-05
0.015097847
-0.00026023045
-5.2417166e-05
3.6748326e-05
4.0497771e-05
3.4247747e-05
2.6039545e-05
-0.0037060448
-1.0546341e-05
1.094258e-05
0.0037169582
-3.7357201e-05
-0.0031947073
-4.2017026e-06
3.5479291e-06
0.0032073611
-1.2002759e-05
-2.0079053e-07
-0.0044916506
-5.8278102e-07
-3.3970363e-07
0.004493738
-9.6815946e-07
-4.2746838e-07
-5.2041013e-06
-0.01501789
-8.9703184e-06
0.015006018
1.7558778e-05
2.2656701e-06
-2.8015464e-06
2.4415525e-06
-5.0484454e-06
-5.7747527e-07
1.2606089e-05
-3.9246292e-06
1.3780475e-05
-0.01503195
-1.7043592e-05
0.014951685
8.6636084e-05
-2.079951e-06
-5.4507255e-07
3.4091412e-06
-3.7719384e-06
-0.014846829
1.2038326e-05
-3.5451209e-06
0.014738527
0.00010354569
4.2822557e-07
-0.015116946
4.8064124e-06
0.015074696
3.8397281e-05
-1.4342228e-06
-2.0252895e-06
3.2555509e-06
-1.2066464e-06
5.2256626e-06
-0.0037412605
5.0407235e-06
-2.2269202e-06
0.003739148
-5.9302685e-06
-0.0032280186
1.051598e-07
1.2429505e-06
0.0032298266
-3.1555941e-06
-3.2759259e-06
-0.0044853156
-2.8340321e-06
4.6156167e-06
0.0044780732
8.7348732e-06
-1.7596944e-05
-1.2504812e-05
-0.014952927
2.5052413e-05
0.014868566
0.00015714113
-1.7026186e-05
-1.7624163e-05
-1.4691314e-05
-1.0605503e-05
-1.0886511e-05
3.0897078e-06
-3.0717594e-05
-1.1734033e-05
-0.014816671
-7.7307684e-06
0.014643597
0.00030265113
-3.1072052e-05
-2.4896308e-05
-2.3441789e-05
-0.00012850537
-0.014576463
1.9347109e-05
-2.6636624e-05
0.014379513
0.00033272922
-2.3461302e-05
-0.014982952
-3.5905193e-05
0.014852611
0.00021769861
3.5247776e-05
-2.4030361e-05
-1.8359416e-05
-2.0859015e-05
-7.6242267e-06
-0.0037327142
1.2756468e-05
-9.2743235e-06
0.0037232531
1.3602603e-05
-0.003224122
2.4203557e-06
-2.2095819e-07
0.0032193007
2.6238852e-06
-4.5208033e-06
-0.0044505445
-3.4174092e-06
6.4163371e-06
0.0044393581
1.2707825e-05
-2.4478658e-05
-1.3720438e-05
-0.014760508
3.8057032e-05
0.014634612
0.00022699381
-2.5756406e-05
-2.3237448e-05
-2.2184593e-05
-1.0987231e-05
-1.6630651e-05
-2.1644022e-06
-4.2324295e-05
-2.0249127e-05
-0.014447785
-5.9365026e-06
0.014242381
0.00038929298
-4.4434729e-05
-3.5368125e-05
-3.5581763e-05
-0.00018125217
-0.014164308
2.6676727e-05
-4.2714615e-05
0.013944976
0.00041661626
-3.4615752e-05
-0.014695561
-5.7994774e-05
0.014522094
0.00030039727
5.6416365e-05
-3.350038e-05
-2.819768e-05
-2.9037915e-05
-1.3428554e-05
-0.0037008404
1.4776872e-05
-1.1232603e-05
0.0036880456
2.2680202e-05
-0.0031996707
3.0807842e-06
-9.4017223e-07
0.0031919565
5.5756529e-06
-4.6193176e-06
-0.0044056125
-3.0988516e-06
6.2932675e-06
0.0043938064
1.3231211e-05
-2.5808289e-05
-1.1890115e-05
-0.014496835
3.8055945e-05
0.014352445
0.00025277901
-2.8432267e-05
-2.4099964e-05
-2.4277625e-05
-8.9163418e-06
-1.8977295e-05
-4.0452217e-06
-4.5719666e-05
-1.9542702e-05
-0.014037147
-7.791779e-06
0.013838562
0.00039717464
-4.8653062e-05
-3.7974505e-05
-3.8911638e-05
-0.00019995273
-0.013731093
3.3224333e-05
-5.3900862e-05
0.013528547
0.00042317411
-3.7531558e-05
-0.014341562
-6.8567516e-05
0.014161213
0.00031456273
6.8290328e-05
-3.5340879e-05
-3.0540286e-05
-3.0521956e-05
-1.4746757e-05
-0.003658289
1.4212403e-05
-1.043421e-05
0.0036439507
2.5307938e-05
-0.0031676886
2.8385507e-06
-1.212628e-06
0.003159481
6.5832458e-06
-4.1694975e-06
-0.0043610274
-2.4982449e-06
5.2539902e-06
0.0043502336
1.2208748e-05
-2.4681723e-05
-9.2015961e-06
-0.014206192
3.2492208e-05
0.01406204
0.00024860241
-2.8136988e-05
-2.302211e-05
-2.3628218e-05
-6.3362122e-06
-1.8630426e-05
-3.3043153e-06
-4.5472031e-05
-1.4418432e-05
-0.013651289
-1.2120275e-05
0.013478223
0.00037043482
-4.8937272e-05
-3.7633185e-05
-3.878788e-05
-0.00019774447
-0.013340629
3.8666519e-05
-6.0720332e-05
0.013169045
0.00039138311
-3.6735626e-05
-0.013986051
-7.3680996e-05
0.013819635
0.00029426421
7.4706249e-05
-3.4078601e-05
-2.9333539e-05
-2.8722442e-05
-1.4021467e-05
-0.0036104494
1.31545e-05
-8.9636497e-06
0.0035953102
2.4971071e-05
-0.0031358738
2.3332914e-06
-1.2566618e-06
0.0031283838
6.4133671e-06
-3.5756271e-06
-0.0043209973
-1.9904739e-06
4.0607362e-06
0.0043114977
1.1006359e-05
-2.2960777e-05
-6.8405227e-06
-0.013923093
2.4154862e-05
0.01379225
0.00022868991
-2.6914173e-05
-2.1206958e-05
-2.1871504e-05
-4.1258982e-06
-1.7013763e-05
-1.0662793e-06
-4.4621322e-05
-7.0963702e-06
-0.013320947
-1.7198627e-05
0.013180541
0.0003297903
-4.7998349e-05
-3.5857613e-05
-3.6612191e-05
-0.00018390326
-0.013014603
4.3001987e-05
-6.4693767e-05
0.012877587
0.00034261209
-3.5332971e-05
-0.013665
-7.5350087e-05
0.013524319
0.00025985288
7.7310511e-05
-3.2240955e-05
-2.7151279e-05
-2.640368e-05
-1.2973509e-05
-0.0035597758
1.2666221e-05
-8.0818234e-06
0.0035442703
2.3895666e-05
-0.0031076076
1.9723612e-06
-1.2508533e-06
0.0031011755
5.7096084e-06
-3.0805758e-06
-0.0042859269
-1.519459e-06
2.9705797e-06
0.0042775268
1.0029805e-05
-2.1405453e-05
-4.9072412e-06
-0.013673049
1.202622e-05
0.01357029
0.00019597913
-2.6055555e-05
-1.9483274e-05
-1.9227972e-05
-1.974944e-06
-1.5086865e-05
2.8963724e-06
-4.3147451e-05
3.5629741e-06
-0.013058082
-2.4163243e-05
0.0129553
0.00027675752
-4.6322272e-05
-3.1889061e-05
-3.2015789e-05
-0.00016358723
-0.012758006
4.6403679e-05
-6.4956836e-05
0.012656183
0.00028396597
-3.4014749e-05
-0.013399653
-7.2166608e-05
0.01329434
0.00021370483
7.4902355e-05
-3.0814164e-05
-2.3459701e-05
-2.283566e-05
-1.1964123e-05
-0.0035093617
1.2636685e-05
-8.0057424e-06
0.0034944755
2.2220454e-05
-0.0030835207
1.8037472e-06
-1.2073865e-06
0.0030780409
4.8828277e-06
-2.7785941e-06
-0.0042551777
-9.156475e-07
1.7313129e-06
0.0042479903
9.1500943e-06
-1.9451449e-05
-2.1694926e-06
-0.013492216
-1.4805335e-05
0.01345679
0.00012056392
-2.5380354e-05
-1.5767112e-05
-1.1938881e-05
2.6176877e-06
-1.1725217e-05
1.3486934e-05
-4.1363901e-05
2.7878211e-05
-0.012876161
-4.0126133e-05
0.012830297
0.00019098305
-4.4819019e-05
-2.2691184e-05
-2.3992339e-05
-0.00014405644
-0.012573361
4.9044106e-05
-5.485951e-05
0.012513073
0.00021016515
-3.2193348e-05
-0.013215025
-5.3271321e-05
0.013176566
0.00012234397
5.7549937e-05
-2.8877496e-05
-1.3786649e-05
-1.3300545e-05
-9.9938291e-06
-0.0034657859
1.177032e-05
-7.4645349e-06
0.0034540533
1.7421634e-05
-0.0030629555
1.769873e-06
-1.177128e-06
0.0030582992
4.0630196e-06
-6.5251362e-06
-2.8817518e-06
-0.0042314283
4.0772094e-06
0.0042226558
1.4102342e-05
-1.0911051e-05
1.2967556e-05
-7.3588875e-05
-6.1774493e-05
-1.6230271e-05
1.7122348e-06
2.5501122e-05
-0.013487974
0.0034613043
0.0034121347
0.0033654478
0.0032925995
2.3879974e-05
8.7031345e-06
4.6234107e-05
-2.5626003e-05
8.6045171e-05
-6.7817383e-05
9.7382029e-05
0.0032699992
0.0032174762
0.0031032487
0.0031372688
-0.012797201
-4.0590091e-05
1.9206554e-05
6.1412509e-07
-0.00014542817
5.1242067e-05
-3.1944343e-05
0.00014795685
0.0031512265
0.0031725157
0.0030729753
0.0030601653
-0.012478703
-6.9447654e-06
5.2741545e-06
-1.8249414e-06
-1.3946098e-05
-0.013169703
0.0033314999
0.0033625817
0.00322703
0.0031851234
-7.4131364e-06
4.4793059e-05
4.3534904e-05
-6.2549841e-06
-0.0034616199
-1.4156928e-06
1.4163213e-06
0.0034852346
-1.7359257e-05
4.6846228e-06
-0.0030453096
-5.8008813e-06
0.003034065
1.2360681e-05
-2.09852e-05
-2.308863e-05
1.7474071e-05
0.0030864147
1.6356706e-05
-3.6189649e-05
-2.7282764e-05
0.002856742
2.1697744e-05
2.8907045e-05
-1.9020265e-05
-9.0176157e-06
0.0027799816
5.9856168e-06
1.065438e-05
-6.769559e-06
-2.02756e-06
1.2161596e-06
0.0027620154
3.3698674e-06
-3.4376663e-06
3.3943572e-09
-3.4753423e-07
0.002758719
1.6817786e-06
-8.7885619e-06
2.0284242e-06
-2.7641927e-06
0.0027637583
4.4659213e-06
-2.3879494e-05
9.0151587e-06
-1.2128767e-05
0.002790212
1.410647e-05
-3.4885265e-05
2.7257164e-05
-2.9322035e-05
0.0028995947
3.3527529e-05
-2.2683069e-05
2.3461901e-05
-3.0857567e-06
0.00319922
2.7726983e-05
-0.0028943368
-1.3513238e-06
-1.4646244e-06
6.9203663e-06
6.9592298e-06
0.0028832781
-0.00012016817
-0.011354702
-9.4747376e-05
9.7800047e-05
0.011340219
0.00013162842
-0.011221001
-0.00013637667
-7.9343554e-05
5.7062903e-05
0.011275767
0.00010392708
-0.011116378
-8.1527776e-05
-3.6525589e-05
1.7719089e-05
0.011158064
5.8683491e-05
-0.011089445
-6.0282443e-05
-6.5072993e-08
-1.7581195e-05
0.011122086
4.5322474e-05
-0.011159301
-0.00011103797
3.6403503e-05
-5.692351e-05
0.011210596
8.0297705e-05
-0.00014802059
-0.011289241
7.9181631e-05
-9.7458652e-05
0.011332136
0.00012343965
-0.01151764
-3.089369e-05
0.011414091
0.000116617
9.3576097e-05
-1.1994824e-05
-2.5811455e-06
-3.3854076e-06
-1.4891264e-05
-4.2426357e-05
-3.1933753e-06
2.7512106e-06
-0.0032355919
1.3285069e-07
1.7744424e-06
2.6633692e-07
2.0493163e-06
0.0032313741
1.5461453e-06
1.4519067e-06
-0.0028754703
-1.4799404e-06
0.002875518
-1.5607663e-06
-1.506394e-06
-4.7797722e-06
-0.011297058
1.4027978e-05
0.011270584
1.8766335e-05
-1.5808995e-05
-0.011304156
-1.8147204e-05
1.6095968e-05
0.011297415
2.4642824e-05
-3.5168937e-06
-0.011185587
-1.1133011e-05
6.2416292e-06
0.011199344
-5.3100938e-06
6.1874245e-06
-0.011144449
-1.2118477e-07
-5.9914679e-06
0.011159105
-1.4691404e-05
-1.3202799e-05
-0.011244311
1.0907384e-05
-1.5881833e-05
0.011252346
1.0182707e-05
-1.0922716e-05
-0.011330263
1.7978876e-05
-1.3939607e-05
0.01130917
2.8019844e-05
-1.4875113e-06
-0.011347149
0.011319241
4.5097517e-06
3.9044667e-06
2.4522204e-06
4.6406796e-06
5.1891569e-06
1.0674619e-06
5.9191591e-06
1.2281819e-05
-1.0537378e-05
7.4231751e-07
-0.0032307496
-1.2292085e-06
5.4880152e-07
0.003231579
-8.8627108e-07
3.9417599e-06
3.8013312e-06
-0.0028825098
-5.5527117e-06
0.0028860399
-5.7153225e-06
5.3651623e-05
4.11834e-05
-0.011265787
-4.3019492e-05
0.011278059
-6.4046213e-05
8.0111244e-05
-0.011291524
4.0761623e-05
-3.4091215e-05
0.011296137
-9.1346701e-05
0.00010234949
-0.011197417
2.4556477e-05
-1.2653718e-05
0.011199022
-0.00011581474
0.00010811376
-0.011160024
-1.6037691e-07
1.2984108e-05
0.011161441
-0.00012231133
9.2216578e-05
-0.011248487
-2.4864956e-05
3.4398767e-05
0.011251261
-0.00010447789
6.7495143e-05
-0.011303285
-4.1013093e-05
4.319472e-05
0.011311262
-7.7603871e-05
9.6715986e-06
-0.011319247
0.01133493
-5.0284909e-05
-4.2092271e-05
9.4745315e-06
1.0198679e-05
1.1066936e-05
7.5326714e-06
1.1271626e-05
1.7469791e-05
4.1567142e-08
1.4914707e-06
-0.0032418114
-3.6063322e-06
1.2699805e-06
0.003245718
-3.0562555e-06
6.8966073e-06
6.6962848e-06
-0.0029021378
-1.0173236e-05
0.0029091363
-1.0411661e-05
0.00010656251
8.4441682e-05
-0.011305026
-9.4587237e-05
0.011347547
-0.0001388896
0.00017064541
-0.011311326
9.4432566e-05
-8.269185e-05
0.011338232
-0.00020923349
0.0002177013
-0.011206154
6.1372424e-05
-3.2565694e-05
0.011220673
-0.00026097855
0.00022843013
-0.011166878
-2.0546881e-07
3.2992412e-05
0.011178511
-0.00027279865
0.0001975057
-0.011261824
-6.1782704e-05
8.3112112e-05
0.011281765
-0.00023872078
0.00014022995
-0.011332174
-9.4798376e-05
9.4868414e-05
0.011366994
-0.00017506003
1.9125631e-05
-0.011369417
0.011417437
-0.00010185523
-8.5426992e-05
1.7136692e-05
1.8185683e-05
1.8653977e-05
1.4473621e-05
1.8142419e-05
2.4833944e-05
8.7438994e-06
2.4740788e-06
-0.0032653613
-6.5220756e-06
2.2216462e-06
0.0032728906
-5.6984901e-06
1.1169448e-05
1.0895169e-05
-0.0029367657
-1.6765039e-05
0.0029485649
-1.7092312e-05
0.00017841259
0.00014250244
-0.011407074
-0.00016279329
0.011487423
-0.00023841871
0.00029367745
-0.011379107
0.00016541324
-0.00014719217
0.011437795
-0.00037051616
0.00038046103
-0.011245197
0.00011056804
-5.922523e-05
0.011283728
-0.00047027283
0.00040049459
-0.011198998
-2.3550601e-07
5.9723118e-05
0.011232402
-0.00049331951
0.00034309665
-0.011313494
-0.00011106215
0.00014771528
0.011361019
-0.00042720423
0.00023829916
-0.011417535
-0.00016588743
0.00016318904
0.011487684
-0.00030567389
3.123421e-05
-0.011486463
0.011573968
-0.00017113137
-0.00014359379
2.7908927e-05
3.0290482e-05
2.9705921e-05
2.4205045e-05
2.8145929e-05
3.6017539e-05
1.9749218e-05
3.9106412e-06
-0.0033054622
-1.0743938e-05
3.6279868e-06
0.0033181883
-9.5179501e-06
1.7181858e-05
1.6820971e-05
-0.0029926718
-2.6067375e-05
0.0030112388
-2.649963e-05
0.00027948918
0.00022397631
-0.011592592
-0.00025943736
0.011728666
-0.00038004749
0.00047122927
-0.011519727
0.00026743377
-0.00024134522
0.011632505
-0.00061001172
0.00062214704
-0.011342243
0.00018341581
-9.9083388e-05
0.011429532
-0.00079367896
0.00065792513
-0.011284699
-1.9827935e-07
9.9551152e-05
0.01136496
-0.00083743855
0.00055654263
-0.011430057
-0.00018394265
0.00024197607
0.011528955
-0.00071337619
0.00037774639
-0.011582113
-0.00026804948
0.00025998481
0.011707746
-0.00049521981
4.7944471e-05
-0.011689703
0.011832613
-0.00026839657
-0.00022521638
4.3046481e-05
4.7603582e-05
4.5180266e-05
3.7863638e-05
4.2151188e-05
5.2065832e-05
3.4885484e-05
5.9342596e-06
-0.0033694168
-1.669642e-05
5.6262321e-06
0.0033894727
-1.4919723e-05
2.4829705e-05
2.4373591e-05
-0.0030778259
-3.7991401e-05
0.0031051566
-3.8545502e-05
0.00041055774
0.00032953768
-0.01190145
-0.00038751203
0.012117963
-0.00056901972
0.00071221557
-0.011785859
0.00040617066
-0.00037272771
0.011992
-0.00095170433
0.00096380382
-0.011558235
0.00028731377
-0.00015678822
0.011744593
-0.0012805893
0.0010255645
-0.011486314
3.7087101e-08
0.00015693363
0.011665844
-0.0013619583
0.0008531065
-0.011669025
-0.00028777562
0.00037351503
0.011864878
-0.0011345955
0.00056253495
-0.011872207
-0.00040703269
0.00038832366
0.012085006
-0.00075653471
6.9498038e-05
-0.012013477
0.012230856
-0.00039462483
-0.000331016
6.2408195e-05
6.9770964e-05
6.4551399e-05
5.5303767e-05
5.9665788e-05
7.2707086e-05
5.4394682e-05
8.506678e-06
-0.0034659633
-2.4284497e-05
8.1930565e-06
0.0034954021
-2.1855324e-05
3.2838576e-05
3.2284731e-05
-0.0031986706
-5.0609949e-05
0.0032354461
-5.1295891e-05
0.00055157408
0.00044267824
-0.012383197
-0.00052944068
0.012700174
-0.00078177359
0.00098983807
-0.012263354
0.00056506457
-0.00052746213
0.012613581
-0.0013776586
0.0013803902
-0.012011875
0.0004122277
-0.0002276766
0.01241279
-0.0019658549
0.0014812207
-0.011932368
5.6826374e-07
0.0002271256
0.012348114
-0.0021246568
0.0012061643
-0.012133057
-0.00041260945
0.00052854516
0.012505585
-0.0016946173
0.00076822918
-0.012354791
-0.00056646483
0.00053078021
0.012687812
-0.0010655281
9.2819512e-05
-0.012493705
0.012795749
-0.00053062381
-0.00044461532
8.280716e-05
9.288942e-05
8.4025705e-05
7.3612196e-05
7.7221077e-05
9.4391801e-05
7.5472513e-05
1.1197828e-05
-0.0036016685
-3.2248458e-05
1.091602e-05
0.0036410261
-2.9228474e-05
3.8154133e-05
3.7511163e-05
-0.0033535864
-5.9132644e-05
0.0033969797
-5.99417e-05
0.00064671991
0.0005174177
-0.013064564
-0.00062741514
0.013464816
-0.00093702754
0.0012030977
-0.013065498
0.00068368201
-0.00065944251
0.01362271
-0.0017846247
0.0017571241
-0.012974533
0.00053838156
-0.00030853828
0.013614028
-0.0026265385
0.0019140535
-0.0129266
4.6532052e-06
0.00030222264
0.013553917
-0.0028483201
0.0015033639
-0.013022684
-0.00053749138
0.00066200261
0.013648126
-0.002253392
0.00091500217
-0.013086027
-0.00068690832
0.00062995804
0.013549403
-0.0013214793
0.00010939282
-0.013137942
0.013501234
-0.00062227893
-0.00052018306
9.6172283e-05
0.00010744688
9.495593e-05
8.5489202e-05
8.6997032e-05
0.00010835489
9.0323192e-05
1.2978507e-05
-0.0037738347
-3.7542748e-05
1.2784544e-05
0.0038199047
-3.4305032e-05
3.6691832e-05
3.598612e-05
-0.0035244832
-5.6960587e-05
0.0035666112
-5.7856117e-05
0.00061434268
0.00048833852
-0.013880919
-0.00059968949
0.014284025
-0.00090618888
0.0011725986
-0.014218931
0.00067613018
-0.00066831846
0.014731917
-0.0016934958
0.0017025757
-0.014167634
0.00054147634
-0.00031494313
0.014498275
-0.0022598321
0.0018415809
-0.014062076
3.2015732e-05
0.00025923187
0.014335788
-0.0024066192
0.0014772615
-0.014253722
-0.00050629115
0.00065510391
0.014683506
-0.0020559489
0.00087901937
-0.014056337
-0.00067677792
0.00060391758
0.014550511
-0.0013004288
0.00010681598
-0.013871949
0.014217817
-0.0005903551
-0.00049251139
9.1388728e-05
0.00010098999
8.6733627e-05
8.0911205e-05
7.9410171e-05
0.00010304713
8.7615355e-05
1.2490643e-05
-0.0039620183
-3.61005e-05
1.2438907e-05
0.0040065317
-3.3360092e-05
2.694107e-05
2.6206291e-05
-0.0036759712
-4.1517455e-05
0.003706774
-4.2444544e-05
0.00043119954
0.00034125815
-0.014639305
-0.00042489305
0.014915232
-0.00062358152
0.00077723218
-0.015047924
0.00046733507
-0.00042853003
0.015123239
-0.00089143268
0.0009998688
-0.014546467
0.00033219284
-0.00020868609
0.014338467
-0.00091543823
0.0010481073
-0.014323045
7.161655e-05
7.6983803e-05
0.014066019
-0.0009397439
0.00093391852
-0.014849956
-0.00023180872
0.00036916061
0.014752093
-0.00097347885
0.00061330624
-0.014948276
-0.00044500146
0.00042354128
0.015187091
-0.00083074991
8.0018238e-05
-0.014521618
0.014759189
-0.00041385862
-0.00034604637
6.4594046e-05
7.0822332e-05
5.793233e-05
5.655584e-05
5.3359365e-05
7.6039061e-05
6.2922792e-05
9.2544906e-06
-0.0041284032
-2.6393072e-05
9.326634e-06
0.0041611695
-2.4968188e-05
1.3086018e-05
1.2364134e-05
-0.0037744948
-1.9597552e-05
0.0037891237
-2.0490255e-05
0.00019187263
0.00015354383
-0.015086395
-0.00018484346
0.015149167
-0.00022340979
0.00024532767
-0.014983117
0.00016702774
-0.00011856526
0.014694253
-4.9762354e-06
0.00012867898
-0.013960601
8.3457186e-05
-8.0857073e-05
0.013504612
0.00032467321
0.00010876711
-0.013652552
9.9353599e-05
-0.00010622824
0.013172706
0.00037791633