/*--------------------------------*- C++ -*----------------------------------*\
| =========                 |                                                 |
| \\      /  F ield         | OpenFOAM: The Open Source CFD Toolbox           |
|  \\    /   O peration     | Version:  2406                                  |
|   \\  /    A nd           | Website:  www.openfoam.com                      |
|    \\/     M anipulation  |                                                 |
\*---------------------------------------------------------------------------*/
FoamFile
{
    version     2.0;
    format      ascii;
    arch        "LSB;label=32;scalar=64";
    class       volVectorField;
    location    "200";
    object      U;
}
// * * * * * * * * * * * * * * * * * * * * * * * * * * * * * * * * * * * * * //

dimensions      [0 1 -1 0 0 0 0];

internalField   nonuniform List<vector> 
71615
(
(0.0008162148 1.0011327 0.0025591319)
(-2.4313952e-05 0.99998637 -2.8087843e-05)
(3.0816507e-05 1.0024484 3.5249558e-05)
(-2.27894e-05 1.000754 -0.00019236609)
(-9.7348279e-06 1.0042172 -0.00013485697)
(7.8455963e-07 1.0031082 -0.00041533569)
(-6.4960255e-05 1.0084488 -0.00026795305)
(1.8570564e-05 1.0076684 -0.00074713587)
(-0.00015507147 1.0161634 -0.00045670036)
(4.0455536e-05 1.0155622 -0.0012625575)
(-0.00030052137 1.029092 -0.00073591364)
(6.9227079e-05 1.0285844 -0.0020486762)
(-0.00052780322 1.0497014 -0.001130227)
(0.000107896 1.0492347 -0.003185328)
(-0.00085861101 1.0808672 -0.0016325218)
(0.00015409903 1.0804185 -0.0046734284)
(-0.001281716 1.1247222 -0.0021550506)
(0.00019429796 1.1243242 -0.006295572)
(-0.0017056169 1.1801975 -0.0024834553)
(0.0001986125 1.1799576 -0.00744585)
(-0.0019487703 1.2399987 -0.0023339434)
(0.00013607915 1.2400251 -0.0072226745)
(-0.0018688483 1.2910269 -0.0016390755)
(1.5014566e-05 1.2912377 -0.0052876752)
(-0.0015176088 1.3223762 -0.00074222851)
(-0.00010043904 1.322502 -0.0025628409)
(-0.0010744723 1.3330255 -3.1947015e-05)
(-0.00016454578 1.3329668 -0.00029483144)
(-0.00067922082 1.3292245 0.0003876298)
(-0.00018109958 1.32901 0.0010175812)
(-0.00040382833 1.3179607 0.00057302673)
(-0.0001786842 1.3177026 0.0015198429)
(-0.0001777633 1.3044146 0.00059792737)
(-0.00018337735 1.3042007 0.0016486725)
(1.7038943e-06 1.2913945 0.00053854045)
(-0.00018243048 1.291091 0.0015710329)
(9.8343852e-05 1.2799058 0.00046203293)
(-0.0001844723 1.2793709 0.0013582643)
(0.00011582038 1.2699274 0.00039168742)
(-0.00020059367 1.2689112 0.0011794785)
(2.8893824e-05 1.2607106 0.00038284096)
(-0.00027304629 1.2590672 0.0011321586)
(-0.00013206631 1.2511105 0.00044663202)
(-0.00039981095 1.2486968 0.0012793855)
(-0.000147461 1.000092 0.0006776068)
(-4.5467099e-05 1.0000098 -8.4705619e-05)
(-3.2987648e-05 1.0000128 -0.00016478562)
(5.8337146e-06 1.0000127 -0.00018887048)
(4.1936273e-05 1.0000116 -0.00015884488)
(3.2486089e-05 1.000016 -9.0367874e-05)
(-0.0002566415 0.99987319 -0.00013917197)
(-0.0001719289 1.0012289 -0.00024667554)
(-0.00064986961 1.0009421 -0.0016555377)
(-0.00037445353 1.0008107 -0.0023403633)
(0.00014028422 1.0007733 -0.002442825)
(0.00057351286 1.0008599 -0.0020516191)
(0.00049905565 1.0007798 -0.00094643732)
(0.00013731084 1.0007286 -0.00024613995)
(-0.00042783181 1.003593 -0.00065175404)
(-0.00138016 1.003254 -0.0035258938)
(-0.00078203189 1.0028454 -0.0049439124)
(0.00029160737 1.0027346 -0.0051364)
(0.0011964705 1.0030247 -0.0043329667)
(0.0011419328 1.0030412 -0.0020064947)
(0.00025698231 1.0033567 -0.00039985541)
(-0.00081055149 1.0081882 -0.0012307008)
(-0.0024728869 1.0076718 -0.0063028011)
(-0.0014023924 1.0067615 -0.0088547409)
(0.00051436135 1.0065151 -0.0092069145)
(0.0021393118 1.0071744 -0.0077495531)
(0.0020285301 1.0074456 -0.0035832735)
(0.00047751739 1.0081074 -0.00066021774)
(-0.0014043905 1.0161818 -0.0020947372)
(-0.0041804553 1.0153521 -0.010604921)
(-0.0023819548 1.0136564 -0.014961664)
(0.00086255198 1.0131915 -0.015584458)
(0.0036136804 1.0144352 -0.01306901)
(0.0033789583 1.0150955 -0.0060279683)
(0.00082673692 1.016216 -0.0010799731)
(-0.0023097986 1.0293796 -0.0033841194)
(-0.0068018145 1.0281784 -0.017154704)
(-0.003905597 1.0253833 -0.024360535)
(0.0014009384 1.0246081 -0.02543837)
(0.0058795279 1.0266765 -0.021218162)
(0.0054090235 1.0277857 -0.0097454738)
(0.001359589 1.029514 -0.0017199483)
(-0.00361328 1.0502528 -0.0052181843)
(-0.010605428 1.0488733 -0.026572267)
(-0.0061547707 1.044791 -0.038087408)
(0.0021910645 1.043647 -0.039910686)
(0.0091761928 1.0466881 -0.033042824)
(0.0082671229 1.0480583 -0.015095033)
(0.002126619 1.050474 -0.0026305095)
(-0.0053011646 1.0815934 -0.0075830471)
(-0.015575815 1.0808225 -0.038748745)
(-0.0091616182 1.0757968 -0.056232914)
(0.0032378804 1.0743754 -0.059204669)
(0.013501722 1.0781349 -0.048537608)
(0.011835259 1.0789625 -0.022058423)
(0.0031170843 1.0818571 -0.0037951038)
(-0.0070970075 1.1253353 -0.010123713)
(-0.020901192 1.1269503 -0.051621644)
(-0.01247958 1.1225572 -0.075997467)
(0.0043669232 1.1212986 -0.080509256)
(0.018149968 1.1245863 -0.065232777)
(0.015381801 1.1229757 -0.029601362)
(0.0041629644 1.1255339 -0.0050274369)
(-0.0083141756 1.1802033 -0.011927967)
(-0.024375534 1.1867083 -0.05981922)
(-0.014691183 1.1859583 -0.088720684)
(0.0050674026 1.185812 -0.094488604)
(0.021089921 1.1862298 -0.076063602)
(0.017280026 1.1794887 -0.034961693)
(0.0048502037 1.1801583 -0.0058748719)
(-0.0080307645 1.2390421 -0.01170286)
(-0.022942609 1.2513921 -0.055681551)
(-0.014025079 1.2585701 -0.081917411)
(0.0048078327 1.2613289 -0.088034497)
(0.019733663 1.2547132 -0.070506288)
(0.015489563 1.241195 -0.034167444)
(0.004623479 1.2386097 -0.0057276726)
(-0.0059412197 1.2894416 -0.0088837168)
(-0.016181539 1.3052104 -0.037937706)
(-0.010422883 1.3215231 -0.056605409)
(0.0033457402 1.3268133 -0.062304504)
(0.014057825 1.3131634 -0.048239284)
(0.0096614066 1.2938372 -0.025526675)
(0.003291555 1.2887032 -0.0043631601)
(-0.0030112419 1.3209421 -0.0046836724)
(-0.0075565082 1.3360801 -0.016445073)
(-0.005560526 1.3532338 -0.025047893)
(0.0011346345 1.3567358 -0.028840164)
(0.0064210378 1.345574 -0.021329211)
(0.0025329535 1.3255939 -0.013108896)
(0.0014590511 1.3201893 -0.0024076278)
(-0.00053825273 1.3321712 -0.00096253372)
(-0.00071100298 1.3435627 -3.11909e-05)
(-0.0020378759 1.3514544 0.00083165211)
(-0.00095578439 1.3503732 -0.00024879754)
(0.00034655748 1.3494004 -0.00032369195)
(-0.0027297515 1.3358793 -0.002589765)
(-3.1826638e-05 1.3316328 -0.00073083955)
(0.00096565051 1.328834 0.0014195664)
(0.0031597562 1.3343633 0.0093986096)
(9.8808829e-05 1.3275485 0.017284286)
(-0.0026318497 1.3211805 0.018227012)
(-0.0038057551 1.3332572 0.012831449)
(-0.0050035463 1.3315242 0.0039016105)
(-0.00085579254 1.3285709 0.0003657314)
(0.0015986237 1.3178741 0.0025393215)
(0.0046906176 1.3150925 0.014165991)
(0.00080473629 1.2923812 0.024883771)
(-0.0039143862 1.2820197 0.026438579)
(-0.0062108927 1.3053076 0.019545165)
(-0.005061626 1.3195404 0.0068305895)
(-0.0011140846 1.317819 0.00098237066)
(0.0017210937 1.3044105 0.002921461)
(0.00484197 1.2903656 0.016156567)
(0.00080215266 1.2553116 0.026963475)
(-0.0049114334 1.2429241 0.029735993)
(-0.0074251378 1.2729654 0.021337887)
(-0.0042267074 1.3040299 0.0074833708)
(-0.001047987 1.3044784 0.0012800766)
(0.0015703516 1.2912794 0.0028367858)
(0.0043107912 1.2638284 0.016305626)
(0.00043210352 1.2211547 0.026871444)
(-0.0055392474 1.2082606 0.029735469)
(-0.0081024416 1.241267 0.020833734)
(-0.0034739645 1.2866601 0.0072033826)
(-0.00087458908 1.2914593 0.0013491502)
(0.0013379069 1.2794824 0.0025508589)
(0.0035452893 1.2380187 0.015756502)
(-4.8081332e-05 1.1917847 0.025904102)
(-0.0060034939 1.1791584 0.028052752)
(-0.0085205186 1.2126301 0.019784284)
(-0.0032439745 1.26811 0.0068518079)
(-0.00074395944 1.2799413 0.0012581063)
(0.0010856401 1.268909 0.0023300642)
(0.0027879811 1.2142403 0.015163521)
(-0.00056024955 1.1673208 0.024343421)
(-0.0063408482 1.1553135 0.025837956)
(-0.0087965554 1.1878819 0.018696715)
(-0.0034928988 1.2491553 0.0066974449)
(-0.00067920175 1.2699893 0.0010830491)
(0.00090987096 1.2587761 0.0023364992)
(0.002276771 1.1929864 0.01506799)
(-0.0010482915 1.1470548 0.022818752)
(-0.006543559 1.1358273 0.023782699)
(-0.0089589539 1.1667463 0.017611034)
(-0.0040643262 1.2306127 0.0067448429)
(-0.000692792 1.2609336 0.00096303315)
(0.00083702105 1.2480956 0.0025867564)
(0.0018974985 1.1735242 0.015325861)
(-0.0014763911 1.1298005 0.021962746)
(-0.0066764151 1.1198559 0.022437428)
(-0.0092134975 1.1479576 0.017135724)
(-0.004777389 1.2128091 0.0071034426)
(-0.0008672866 1.2515826 0.0010465007)
(-7.1597246e-05 1.0000003 -7.3780918e-05)
(-0.0001211635 1.0000157 -0.00016061246)
(-0.00012787997 1.0000185 -0.00026088356)
(-7.4756068e-05 1.0000176 -0.0003288648)
(1.3317069e-05 1.0000141 -0.00034851984)
(9.549543e-05 1.0000103 -0.00031435907)
(0.00013361724 1.0000072 -0.00023533895)
(0.00010797061 1.0000064 -0.00012980712)
(0.00012297212 0.99996836 -7.2183665e-05)
(-0.00052371253 1.0006943 -0.00054522445)
(-0.0015861656 1.00076 -0.0021467851)
(-0.0015657665 1.0004304 -0.0033079761)
(-0.00082814226 1.0001716 -0.0040802203)
(0.0002961046 1.0001097 -0.0042455337)
(0.001285237 1.0002828 -0.0037579772)
(0.0016843123 1.0006004 -0.0027548844)
(0.0013291885 1.0008991 -0.0015300307)
(0.00026749895 1.0006608 -0.00025187776)
(-0.0011585744 1.0030326 -0.0011997082)
(-0.0033014359 1.0027019 -0.0044763859)
(-0.0032865042 1.001563 -0.006924131)
(-0.00174774 1.0006517 -0.0085896535)
(0.00062471017 1.0004337 -0.0089424412)
(0.0026992045 1.0010468 -0.0078911324)
(0.0035185379 1.0021488 -0.0057523071)
(0.0028154485 1.0031665 -0.003238627)
(0.00060545185 1.0030727 -0.00054649345)
(-0.0020927305 1.0075944 -0.0021563645)
(-0.0058938329 1.0064458 -0.0079937415)
(-0.0059294623 1.0038415 -0.012460104)
(-0.0031733031 1.0017232 -0.015553788)
(0.0011305746 1.0012145 -0.016211769)
(0.0048759704 1.0026456 -0.014249779)
(0.0063185989 1.0051772 -0.01031092)
(0.0050338246 1.0075137 -0.0057799508)
(0.0010910952 1.0077581 -0.00098151648)
(-0.0035314991 1.0155096 -0.0036216604)
(-0.0099605454 1.0130807 -0.013494169)
(-0.01015343 1.0081293 -0.021284843)
(-0.0054885225 1.0040158 -0.026821707)
(0.0019494406 1.0030187 -0.028016078)
(0.0083814795 1.0058135 -0.024472382)
(0.010748336 1.0106729 -0.017507424)
(0.0084727045 1.0150978 -0.0097085622)
(0.0018312721 1.0158592 -0.0016481339)
(-0.0057086887 1.0285846 -0.0058307906)
(-0.016234067 1.0244775 -0.021957316)
(-0.016850969 1.0161218 -0.035243579)
(-0.0092462915 1.0089595 -0.045042414)
(0.0032786902 1.0071941 -0.047206759)
(0.014007324 1.0121068 -0.040846561)
(0.017670768 1.0204376 -0.028732127)
(0.013705038 1.0278089 -0.015673619)
(0.002948586 1.0291802 -0.0026515342)
(-0.0088175816 1.049316 -0.0089772761)
(-0.025402485 1.0435598 -0.034303719)
(-0.027036449 1.0309767 -0.056431369)
(-0.015154691 1.0196867 -0.073608605)
(0.0053735772 1.0168283 -0.077532225)
(0.022718606 1.0246872 -0.06616319)
(0.027987873 1.0375347 -0.045429286)
(0.021217383 1.0483937 -0.024220623)
(0.0045389169 1.0501796 -0.0040777696)
(-0.012813144 1.0805647 -0.013015085)
(-0.037515728 1.0744112 -0.050607736)
(-0.041276433 1.0582064 -0.086055278)
(-0.023815875 1.0427362 -0.11547867)
(0.0084542774 1.0386377 -0.12249933)
(0.035224093 1.0496518 -0.10253105)
(0.04201626 1.0667553 -0.06810686)
(0.030908157 1.0802849 -0.035220206)
(0.0065735003 1.0816045 -0.0059022764)
(-0.017051628 1.1244022 -0.01729826)
(-0.050723102 1.1214132 -0.068431684)
(-0.057963922 1.1059342 -0.12112724)
(-0.034523006 1.0906489 -0.16767332)
(0.01233966 1.0867063 -0.17936884)
(0.050250406 1.0971973 -0.14695319)
(0.057955186 1.1142604 -0.093937723)
(0.041132877 1.1264603 -0.046789098)
(0.0087132503 1.1253003 -0.0078255118)
(-0.019957485 1.1797126 -0.020245628)
(-0.059584947 1.185676 -0.080605633)
(-0.071233959 1.1845843 -0.14842648)
(-0.046742874 1.1879174 -0.22022281)
(0.016611939 1.1870345 -0.24056639)
(0.064951663 1.1865026 -0.18690088)
(0.069226893 1.1840475 -0.11235214)
(0.047717323 1.1864321 -0.054187024)
(0.010139326 1.1798971 -0.0091203626)
(-0.019399581 1.2393433 -0.019717644)
(-0.056079465 1.2591353 -0.076126646)
(-0.072608886 1.2894231 -0.14826452)
(-0.046710205 1.2866053 -0.21158728)
(0.012371941 1.278257 -0.22681258)
(0.063607819 1.2936224 -0.18619078)
(0.067725708 1.2728419 -0.10899865)
(0.044896458 1.2515247 -0.0508597)
(0.0097493129 1.238282 -0.00881766)
(-0.014571199 1.2904953 -0.014902686)
(-0.039807811 1.3230856 -0.053991424)
(-0.048700456 1.3465131 -0.094740113)
(-0.028956983 1.2959634 -0.11211242)
(0.00016682921 1.2771784 -0.11558042)
(0.03263349 1.324044 -0.10961916)
(0.048056963 1.34456 -0.077417315)
(0.031324774 1.3055465 -0.035221819)
(0.00710547 1.2883381 -0.006576455)
(-0.0075546728 1.3222147 -0.0078781086)
(-0.018869594 1.35484 -0.024834652)
(-0.01573942 1.3226382 -0.022900955)
(-0.0081129013 1.2293861 0.00098916545)
(-0.011304529 1.2036981 0.0056625663)
(-0.0035791442 1.272873 -0.015811511)
(0.016792783 1.3560519 -0.029272542)
(0.014076071 1.3364322 -0.015476524)
(0.0033038443 1.319866 -0.0033873741)
(-0.0014439852 1.3332101 -0.0017268617)
(-0.0010412498 1.3487236 0.0012301748)
(0.0087124209 1.2585012 0.031637801)
(0.0037930607 1.1469261 0.066864787)
(-0.017185278 1.119079 0.072629473)
(-0.026348159 1.1960829 0.045926285)
(-0.0093619173 1.3171605 0.008941467)
(0.00058433327 1.3440862 -0.00031108206)
(3.6144353e-05 1.3313939 -0.00063899099)
(0.0024286911 1.3294699 0.002225841)
(0.01044754 1.3161014 0.018571495)
(0.01979489 1.1928716 0.058303541)
(0.0075018885 1.0810855 0.090063876)
(-0.01883282 1.0548191 0.09455972)
(-0.035024031 1.1288396 0.070461306)
(-0.025195955 1.2608564 0.031839185)
(-0.0075674189 1.3341609 0.0086666473)
(-0.0018909896 1.3283967 0.0010699355)
(0.0041929508 1.3181381 0.0041157194)
(0.015758548 1.272794 0.027350542)
(0.021848603 1.1398431 0.065010214)
(0.007228767 1.0366761 0.090352377)
(-0.018493388 1.0132536 0.093144089)
(-0.035888142 1.0799464 0.0735866)
(-0.03148881 1.2078153 0.040666596)
(-0.012104151 1.3124668 0.013084831)
(-0.0025751129 1.3176814 0.0018752487)
(0.004574446 1.3043361 0.0046359562)
(0.017391884 1.230819 0.030749641)
(0.019898322 1.1007762 0.06217921)
(0.0054368729 1.0083988 0.081340186)
(-0.017357795 0.98787636 0.08280873)
(-0.033538689 1.0467411 0.067307626)
(-0.032120314 1.164514 0.040798404)
(-0.014214178 1.2841482 0.014453496)
(-0.0024875805 1.304353 0.0020893748)
(0.0041883976 1.2905759 0.0044278871)
(0.016661108 1.1948162 0.030661812)
(0.016655902 1.0727784 0.055782579)
(0.0033460252 0.99071187 0.070090096)
(-0.016035154 0.97281274 0.070630542)
(-0.030200044 1.0245509 0.058211905)
(-0.030273626 1.1310214 0.037130843)
(-0.01493841 1.2541633 0.014161604)
(-0.0021529169 1.2912924 0.0019594465)
(0.0035914405 1.2771783 0.0040737691)
(0.014857586 1.1654152 0.028929341)
(0.013409359 1.0526946 0.048854212)
(0.0015024608 0.97967291 0.059584767)
(-0.014802458 0.96397586 0.059439228)
(-0.026899207 1.0096224 0.049326584)
(-0.027701891 1.1055716 0.032486447)
(-0.014977557 1.2258413 0.013167267)
(-0.0018048859 1.2796557 0.0016581155)
(0.0031192481 1.2636246 0.0039409467)
(0.012849744 1.1417043 0.026735715)
(0.010626407 1.0380007 0.042684871)
(5.4632256e-05 0.97265296 0.050770404)
(-0.01372684 0.95877233 0.05013385)
(-0.024037081 0.99932212 0.041775837)
(-0.025225064 1.0861322 0.028144196)
(-0.014929418 1.2006566 0.012244107)
(-0.0016002603 1.2694007 0.0013481953)
(0.0029330103 1.2492445 0.0041897822)
(0.011185823 1.1221869 0.024841329)
(0.0084381728 1.0265316 0.037751266)
(-0.0010240724 0.96794529 0.043787502)
(-0.012809381 0.9556727 0.042800686)
(-0.021720013 0.99171678 0.035806965)
(-0.023211176 1.0705144 0.024630571)
(-0.014838293 1.1787322 0.011425908)
(-0.0016330742 1.25967 0.001187857)
(0.0031553459 1.2341768 0.004908142)
(0.010174772 1.1048043 0.023794001)
(0.0068757888 1.0170126 0.034154691)
(-0.0017864382 0.96483519 0.038520119)
(-0.01206244 0.9540615 0.037262582)
(-0.01996844 0.98588159 0.031376544)
(-0.021869531 1.056909 0.022223767)
(-0.015096596 1.1588989 0.011081142)
(-0.0019792061 1.2492488 0.0012566954)
(0.00065791936 1.0000852 -0.00014664604)
(-0.00015853437 1.0000158 -0.00012364423)
(-0.00023053636 1.0000206 -0.00023319076)
(-0.00021664239 1.0000202 -0.00033336233)
(-0.00012164631 1.0000155 -0.00040279918)
(2.1155914e-05 1.0000091 -0.00042276977)
(0.00015598134 1.0000042 -0.00038785181)
(0.00023053437 1.0000019 -0.00030769502)
(0.00021978744 1.0000022 -0.00020297654)
(0.00012311906 1.0000044 -9.3184035e-05)
(-0.0012204605 1.0006703 0.0011413041)
(-0.00022804079 1.001212 -0.00019561083)
(-0.0021228149 1.0007589 -0.0016161067)
(-0.0028744941 1.000243 -0.0029054008)
(-0.0025877623 0.99966332 -0.0040726265)
(-0.0013215027 0.99922984 -0.0048449218)
(0.00046668306 0.99913139 -0.0050104955)
(0.0020717453 0.99941512 -0.0045207043)
(0.0028783295 0.99995035 -0.00351616)
(0.0026235687 1.0005226 -0.0022526329)
(0.0014806549 1.0009446 -0.0010190822)
(3.7198749e-05 1.0019458 8.3789907e-05)
(-0.00062025857 1.0035693 -0.00047439655)
(-0.0044317854 1.0026972 -0.003357902)
(-0.006032341 1.0009187 -0.0060908621)
(-0.0054860297 0.99885526 -0.0086226877)
(-0.0028227986 0.99728617 -0.010327445)
(0.00099542254 0.99692736 -0.010695065)
(0.0044065226 0.99795961 -0.0096097132)
(0.0060681722 0.99988341 -0.0074105943)
(0.0054843768 1.0018893 -0.0047054144)
(0.0031476531 1.0032879 -0.0021624913)
(0.00016773247 1.0039489 -5.1996992e-05)
(-0.00118339 1.0081579 -0.00088335324)
(-0.007925834 1.0064353 -0.0059813458)
(-0.010895845 1.0023686 -0.010987146)
(-0.01004908 0.99752242 -0.015767554)
(-0.0052294728 0.99374675 -0.019082978)
(0.0018421667 0.99287308 -0.019807146)
(0.0081136458 0.99537621 -0.017678899)
(0.011029514 0.99995257 -0.013459961)
(0.0098541556 1.0045969 -0.008448076)
(0.0056238636 1.007766 -0.0038648008)
(0.00029726312 1.0083901 -0.00017745173)
(-0.002029087 1.0161424 -0.0015076948)
(-0.013399394 1.0130619 -0.010086121)
(-0.018729326 1.0053117 -0.018861997)
(-0.01763329 0.99575154 -0.027621937)
(-0.0093251585 0.98805196 -0.033946193)
(0.0032851218 0.98623714 -0.035356894)
(0.014351688 0.99140044 -0.031243069)
(0.019146334 1.0005855 -0.023345437)
(0.016783153 1.0095857 -0.014378554)
(0.0094557623 1.0155488 -0.0064982737)
(0.00048238578 1.0163362 -0.00035356127)
(-0.0032977786 1.0293297 -0.0024486784)
(-0.021831987 1.0244476 -0.01640813)
(-0.031294592 1.0113078 -0.031482547)
(-0.030378437 0.99422943 -0.047513741)
(-0.016455783 0.97978038 -0.059768382)
(0.0058096331 0.97628118 -0.062586497)
(0.025041066 0.98613272 -0.054459864)
(0.032471451 1.0029758 -0.039558267)
(0.027651108 1.0186278 -0.023675657)
(0.015272662 1.028529 -0.010496585)
(0.0007572603 1.0295399 -0.00061336955)
(-0.0051098485 1.0501935 -0.0037924774)
(-0.034145537 1.0435161 -0.025640521)
(-0.050732155 1.0235694 -0.05099805)
(-0.051472877 0.99553705 -0.080415906)
(-0.028898922 0.97005787 -0.10475679)
(0.010255683 0.96363873 -0.11059997)
(0.043262675 0.98142368 -0.094014959)
(0.053797558 1.0101722 -0.065486196)
(0.043938373 1.0348478 -0.037602597)
(0.023600949 1.049414 -0.016224809)
(0.0011425332 1.050445 -0.00098658601)
(-0.0074536577 1.08153 -0.0055240763)
(-0.050418544 1.074353 -0.037838978)
(-0.078638454 1.0482806 -0.079020481)
(-0.084800018 1.0070509 -0.13255084)
(-0.049944968 0.96585474 -0.18125795)
(0.017918211 0.9554347 -0.19371821)
(0.073091302 0.98428126 -0.15924039)
(0.085983722 1.0292433 -0.10461388)
(0.066286785 1.0633401 -0.056694197)
(0.034306923 1.0815084 -0.023593042)
(0.0016235076 1.0818137 -0.0014788135)
(-0.0099789195 1.125279 -0.0073618564)
(-0.068221291 1.1213454 -0.051156703)
(-0.11295654 1.0955481 -0.1135121)
(-0.13611429 1.0533241 -0.21170707)
(-0.09066202 0.99800807 -0.32105952)
(0.031708636 0.97720847 -0.34842588)
(0.12644693 1.0269737 -0.27164161)
(0.12879185 1.0752022 -0.15668739)
(0.092129812 1.111005 -0.078697186)
(0.045547954 1.127536 -0.031327926)
(0.0021060868 1.1255377 -0.0020279789)
(-0.011778408 1.1801719 -0.0086103628)
(-0.080394435 1.1856132 -0.060144466)
(-0.14405613 1.1835894 -0.1448595)
(-0.18539942 1.1418079 -0.28402353)
(-0.11329173 1.0078057 -0.38558195)
(0.029478232 0.96555654 -0.41244031)
(0.15381908 1.0744282 -0.3460097)
(0.1761453 1.1791043 -0.21417377)
(0.11116869 1.1832501 -0.094731085)
(0.052716986 1.1867211 -0.036242322)
(0.0023830958 1.1802864 -0.0024592614)
(-0.011562029 1.2390502 -0.0083369468)
(-0.075893567 1.2591166 -0.056771513)
(-0.14360141 1.2924368 -0.14218988)
(-0.1479126 1.1620044 -0.21626909)
(-0.089868829 0.97193166 -0.26730833)
(0.0065733213 0.92074493 -0.28855032)
(0.10055192 1.0587515 -0.25489841)
(0.15108591 1.2509539 -0.19116801)
(0.10958016 1.278479 -0.093584001)
(0.049501128 1.2504708 -0.034011827)
(0.0021851844 1.2389033 -0.0025369876)
(-0.0087621059 1.2894904 -0.0062331516)
(-0.053806946 1.323164 -0.040412977)
(-0.08371313 1.3170585 -0.07710303)
(-0.052856431 1.1014943 -0.057798465)
(-0.030544524 0.89080198 -0.028738815)
(-0.023979877 0.83982192 -0.029898795)
(0.0022774867 0.98357843 -0.05949891)
(0.055129159 1.2219665 -0.083519431)
(0.07501243 1.3482776 -0.065706613)
(0.034359723 1.3031594 -0.023719169)
(0.001422334 1.2891074 -0.002184199)
(-0.0045872832 1.3210236 -0.0032732228)
(-0.025096259 1.3549669 -0.018690741)
(-0.0097874252 1.2590925 0.0013430405)
(0.024618455 0.99569582 0.068329218)
(0.013416737 0.77452376 0.13372261)
(-0.040666372 0.72121165 0.14344074)
(-0.066060737 0.87035992 0.086084756)
(-0.030514828 1.1318279 0.015723612)
(0.022515417 1.3456093 -0.023219819)
(0.015140043 1.3333808 -0.010679634)
(0.00039214617 1.3205909 -0.001633842)
(-0.00089233725 1.3322749 -0.00076316388)
(5.7693231e-05 1.348735 0.00067103762)
(0.034955671 1.1784141 0.048673823)
(0.056676526 0.91182907 0.11941406)
(0.0265589 0.71067981 0.17615931)
(-0.041012266 0.66461297 0.18286444)
(-0.086185862 0.79610711 0.1345368)
(-0.072614549 1.0442472 0.065609504)
(-0.019493902 1.2930992 0.010388777)
(0.00027145767 1.3414081 -0.0004321001)
(-0.00047739302 1.3319421 -0.0011417467)
(0.0014635343 1.3289516 0.0007807345)
(0.016187076 1.3158953 0.013966509)
(0.051971796 1.1106941 0.066808645)
(0.060573844 0.86736109 0.12463963)
(0.02519944 0.69788122 0.16402929)
(-0.036336242 0.66049268 0.16672787)
(-0.08235953 0.76870679 0.13215798)
(-0.083154453 0.98485765 0.078728702)
(-0.042701583 1.2306674 0.028330476)
(-0.0083481441 1.3336176 0.0054056907)
(-0.0009845056 1.3287435 -0.0007984883)
(0.0025553011 1.3179877 0.0014533671)
(0.023762561 1.2724529 0.020927325)
(0.053183189 1.0626817 0.06832302)
(0.053402162 0.85000754 0.11183611)
(0.019874552 0.7099117 0.13781584)
(-0.031143838 0.67976698 0.13791118)
(-0.071372414 0.76780632 0.11337937)
(-0.078675824 0.9507125 0.074255261)
(-0.050093161 1.1764533 0.033425683)
(-0.012708446 1.3158297 0.0077477408)
(-0.0011463722 1.3178788 -0.00052290782)
(0.0029051008 1.304512 0.0016122006)
(0.02615519 1.2304279 0.023872359)
(0.047732074 1.0308312 0.06275638)
(0.043619434 0.84715035 0.094794308)
(0.01439739 0.73063331 0.11188723)
(-0.026623663 0.70596693 0.11053009)
(-0.059886696 0.77843743 0.092522937)
(-0.069182762 0.93297917 0.06381119)
(-0.049325255 1.1344955 0.032052776)
(-0.014651344 1.2921478 0.0082887425)
(-0.0010439626 1.3044857 -0.00030875013)
(0.0027811636 1.291364 0.0015095904)
(0.025276685 1.1944238 0.024129521)
(0.040456749 1.0101646 0.055160182)
(0.034477068 0.85099863 0.078808215)
(0.0098356876 0.75264208 0.090178296)
(-0.022944891 0.73205148 0.088055347)
(-0.049945647 0.79280632 0.074270493)
(-0.059182018 0.92467442 0.052722823)
(-0.045235784 1.1033116 0.028218143)
(-0.015016605 1.2659917 0.007889541)
(-0.00085382189 1.2914651 -0.00016641288)
(0.0024523584 1.2795433 0.0013515367)
(0.022964594 1.1650397 0.023062973)
(0.033510074 0.99667022 0.047797443)
(0.026936476 0.85741405 0.065457737)
(0.0063323622 0.77300055 0.073091002)
(-0.020012884 0.75547864 0.070574168)
(-0.041914937 0.80735317 0.059619575)
(-0.050355191 0.92143091 0.043003971)
(-0.04035759 1.0802577 0.0239316)
(-0.014817992 1.2401244 0.0071890905)
(-0.0006849901 1.2800002 -8.3766192e-05)
(0.0021672541 1.2689324 0.0012372123)
(0.02035381 1.1413525 0.021599391)
(0.027674476 0.98750335 0.041516693)
(0.021054876 0.8643066 0.054857734)
(0.0037461501 0.79086458 0.059960653)
(-0.017679691 0.77573679 0.057253625)
(-0.035604091 0.82065839 0.04828709)
(-0.043135029 0.9206164 0.035160205)
(-0.035849069 1.0629065 0.020099911)
(-0.014449763 1.2160501 0.0063873087)
(-0.00054765432 1.2701904 -4.0142066e-05)
(0.0020610591 1.2587336 0.0012989023)
(0.018149803 1.1218593 0.020346938)
(0.023102425 0.98071403 0.036510539)
(0.016583262 0.87102675 0.046605118)
(0.0018698726 0.80648723 0.049910085)
(-0.015808765 0.79326294 0.047120949)
(-0.030680814 0.83261161 0.039626793)
(-0.037431304 0.9209187 0.02907218)
(-0.032219877 1.0491017 0.017070187)
(-0.01444465 1.1944354 0.0058605201)
(-0.00047808186 1.2614296 -2.5144073e-05)
(0.0021424071 1.2479641 0.0015778357)
(0.016816576 1.1045206 0.019714238)
(0.019725749 0.97550857 0.032744162)
(0.013215102 0.87749835 0.040241019)
(0.00048052845 0.82016774 0.042146141)
(-0.014321057 0.80845111 0.039308821)
(-0.02685149 0.84335364 0.032982401)
(-0.033053988 0.92197932 0.024479833)
(-0.029654701 1.037305 0.014946868)
(-0.014841312 1.1746098 0.0056317454)
(-0.00056205228 1.25261 -5.550209e-05)
(-8.4365577e-05 1.0000097 -4.8659505e-05)
(-0.00025903702 1.0000185 -0.00013073286)
(-0.00033078508 1.0000202 -0.00021971849)
(-0.00029908308 1.0000153 -0.00030223099)
(-0.0001652988 1.0000072 -0.00035930559)
(2.8438774e-05 0.99999846 -0.0003758638)
(0.00021202985 0.99999278 -0.00034702081)
(0.00032036379 0.99999166 -0.00028105181)
(0.00032154731 0.99999479 -0.00019503833)
(0.00022442706 0.99999924 -0.00010673141)
(-8.5807857e-05 0.99999803 -5.2961387e-05)
(-0.001641207 1.0009378 -0.00067986745)
(-0.0032861155 1.0004274 -0.0015987049)
(-0.0040426246 0.99966131 -0.0026234054)
(-0.0035190836 0.99882544 -0.003555775)
(-0.0017749837 0.99820585 -0.0041764709)
(0.00062378454 0.99806576 -0.0043098444)
(0.0027923524 0.99847076 -0.0039151419)
(0.003961662 0.99923785 -0.0031095239)
(0.0038199777 1.0000697 -0.0021046269)
(0.0025331657 1.0007226 -0.0011037725)
(0.00070276028 1.0009406 -0.00036920472)
(-0.0034992462 1.0032415 -0.0014366331)
(-0.0068839456 1.001552 -0.0033488927)
(-0.008566181 0.99884755 -0.0055542614)
(-0.007547779 0.99581573 -0.0076184062)
(-0.0038389092 0.99353473 -0.0090190627)
(0.0013479325 0.9930163 -0.0093225847)
(0.0060133131 0.99451347 -0.0084270679)
(0.0084446092 0.99731936 -0.0066254198)
(0.0080406308 1.0003026 -0.0044283864)
(0.0052925515 1.00256 -0.0022968351)
(0.0017174026 1.0032274 -0.00075244727)
(-0.0062636795 1.007646 -0.0025594517)
(-0.012400554 1.0038171 -0.0060269845)
(-0.015680227 0.99750429 -0.010157753)
(-0.014086813 0.99017593 -0.01420052)
(-0.0072665329 0.9845028 -0.017039037)
(0.0025518663 0.98319578 -0.017664076)
(0.01130403 0.9869529 -0.015830556)
(0.015603799 0.9938413 -0.012236406)
(0.014577051 1.0009279 -0.0080237263)
(0.0094795627 1.0061148 -0.0041009432)
(0.0031427095 1.0076862 -0.0013390071)
(-0.010554234 1.0153085 -0.0043020294)
(-0.021205943 1.0080843 -0.010295379)
(-0.027497239 0.99571504 -0.017796916)
(-0.025425887 0.98064389 -0.025599874)
(-0.013405928 0.96843035 -0.031377608)
(0.0047176802 0.96555142 -0.032683419)
(0.020642208 0.97376153 -0.028887934)
(0.027749288 0.98827914 -0.021749925)
(0.025203619 1.0024901 -0.013866221)
(0.01605598 1.0124442 -0.0069344487)
(0.0053173034 1.0154234 -0.0022556724)
(-0.017096261 1.0281146 -0.0069642178)
(-0.035149451 1.0160467 -0.01705223)
(-0.047342928 0.99415964 -0.0306243)
(-0.045727732 0.9654856 -0.04599663)
(-0.02492988 0.94059294 -0.058273878)
(0.0088191334 0.93451621 -0.061158818)
(0.037812872 0.95163598 -0.052887431)
(0.048814365 0.98028318 -0.038246031)
(0.042492876 1.0063331 -0.023374463)
(0.026235068 1.0233934 -0.011324628)
(0.0086062193 1.0282369 -0.0036582262)
(-0.026516225 1.0487898 -0.010815204)
(-0.056336743 1.0308578 -0.027320665)
(-0.080189958 0.99540331 -0.051854597)
(-0.082693348 0.94368798 -0.083133683)
(-0.047340678 0.89385518 -0.11062857)
(0.016885662 0.88122213 -0.11735797)
(0.070336256 0.91647743 -0.098338733)
(0.085386921 0.97107949 -0.066881174)
(0.069819609 1.015585 -0.038406273)
(0.041209552 1.0419154 -0.017790762)
(0.013313329 1.0486573 -0.0056872099)
(-0.038715046 1.0807289 -0.015837745)
(-0.085998338 1.0580294 -0.041681264)
(-0.13227327 1.0067901 -0.085427022)
(-0.15147159 0.92096331 -0.15231744)
(-0.099675651 0.82561504 -0.23073962)
(0.036321426 0.7963757 -0.25089128)
(0.1392936 0.8722138 -0.19383761)
(0.14732644 0.96707396 -0.11525219)
(0.11035576 1.0370384 -0.060668902)
(0.061217536 1.0722959 -0.026431167)
(0.019383307 1.0796763 -0.0083349682)
(-0.051642208 1.1268715 -0.021210949)
(-0.12119267 1.1056961 -0.058532158)
(-0.21141828 1.0529088 -0.13738456)
(-0.27543881 0.90591789 -0.27413607)
(-0.16663987 0.67212601 -0.37676562)
(0.052356563 0.60557271 -0.40329325)
(0.23601897 0.7839806 -0.33607647)
(0.2607268 1.0013669 -0.20549881)
(0.16253622 1.0839055 -0.089034843)
(0.083425203 1.1194833 -0.035972768)
(0.025828551 1.1236367 -0.011185975)
(-0.05992374 1.1866867 -0.024704346)
(-0.14867871 1.1844312 -0.072112898)
(-0.28665169 1.1410477 -0.18268625)
(-0.31111998 0.83216008 -0.29645918)
(-0.19694013 0.45815455 -0.41449845)
(0.043864697 0.35333582 -0.45902102)
(0.24868205 0.63231339 -0.37491735)
(0.30888529 1.0157089 -0.24895534)
(0.21741765 1.1846657 -0.12086335)
(0.098469387 1.1854207 -0.042257985)
(0.03013675 1.1797302 -0.013134273)
(-0.055849145 1.2514628 -0.023243651)
(-0.14900414 1.2895758 -0.072633412)
(-0.22622301 1.1607951 -0.13272337)
(-0.22110393 0.75738473 -0.18526215)
(-0.17102835 0.31349376 -0.28859683)
(0.00083185648 0.17755749 -0.35543165)
(0.15196865 0.52485682 -0.26921764)
(0.20712951 0.97810596 -0.18052122)
(0.20075176 1.2744606 -0.11363526)
(0.092983857 1.2638683 -0.040147599)
(0.028807487 1.240629 -0.01260745)
(-0.038101614 1.3053779 -0.016460249)
(-0.096808029 1.3462251 -0.044735619)
(-0.074367842 1.1002151 -0.027237221)