/*--------------------------------*- C++ -*----------------------------------*\
| =========                 |                                                 |
| \\      /  F ield         | OpenFOAM: The Open Source CFD Toolbox           |
|  \\    /   O peration     | Version:  2406                                  |
|   \\  /    A nd           | Website:  www.openfoam.com                      |
|    \\/     M anipulation  |                                                 |
\*---------------------------------------------------------------------------*/
FoamFile
{
    version     2.0;
    format      ascii;
    arch        "LSB;label=32;scalar=64";
    class       volScalarField;
    location    "225";
    object      k;
}
// * * * * * * * * * * * * * * * * * * * * * * * * * * * * * * * * * * * * * //

dimensions      [0 2 -2 0 0 0 0];

internalField   nonuniform List<scalar> 
71615
(
0.019677405
0.019687245
0.017012416
0.017008049
0.014895616
0.014891131
0.013239258
0.013235907
0.011912216
0.011909955
0.010833155
0.010832097
0.0099508158
0.0099516253
0.0092349822
0.0092393914
0.00866799
0.0086792084
0.0082294945
0.0082512742
0.0078772803
0.007909739
0.0075539981
0.0075894783
0.007230657
0.0072608275
0.0069170092
0.0069423241
0.0066272202
0.0066625822
0.0063698372
0.0064309796
0.0061663418
0.0063283129
0.0060535067
0.006413676
0.0061440175
0.0068130267
0.0065858803
0.0077092096
0.0076578039
0.0093152734
0.0097400126
0.011765519
0.019680004
0.019658113
0.01965298
0.01965212
0.019653523
0.01966223
0.019687981
0.01700558
0.016712271
0.016702043
0.016698605
0.016705426
0.016998377
0.017005905
0.014892434
0.014670083
0.014665512
0.014662984
0.014666711
0.014890905
0.014891549
0.013237529
0.013058696
0.013055521
0.013053089
0.013056215
0.013236578
0.013236914
0.011911741
0.011764886
0.011761592
0.011758806
0.011762421
0.011910554
0.01191141
0.010834087
0.010713016
0.010709374
0.01070601
0.010710428
0.010832387
0.010833945
0.0099537646
0.0098572177
0.0098547295
0.0098507379
0.0098553112
0.0099519758
0.0099536448
0.0092409932
0.0091742427
0.0091782976
0.0091740568
0.0091760037
0.0092413558
0.0092405352
0.0086780129
0.0086544155
0.0086769553
0.0086747905
0.0086680107
0.0086868087
0.0086764781
0.0082432078
0.0082759713
0.0083122325
0.0082992037
0.0083176645
0.0082705237
0.0082395085
0.0078924643
0.007952518
0.0083290333
0.0085991558
0.0080710568
0.0079458798
0.0078859139
0.0075672041
0.0078540735
0.010660634
0.01246387
0.0087997828
0.0076430627
0.0075589012
0.0072390188
0.0085916347
0.018363535
0.023706461
0.012244232
0.0073513469
0.0072307643
0.0069219811
0.011017971
0.030541198
0.038971133
0.019448713
0.0072258298
0.0069123712
0.0066309494
0.015700112
0.044404782
0.054829056
0.029488424
0.0074673972
0.0066187613
0.0063924024
0.022513807
0.057568593
0.06935494
0.040577967
0.008475962
0.0063559618
0.0062621424
0.030604685
0.069041182
0.080747715
0.051147935
0.010773923
0.0061264974
0.0062993085
0.038929306
0.078033627
0.088505452
0.060446224
0.014860439
0.0059962111
0.0066487452
0.04665455
0.084005085
0.093106624
0.067908956
0.02039763
0.0060218201
0.0075275582
0.053422488
0.087365318
0.095221481
0.073064796
0.026542755
0.006356678
0.0091701653
0.058652649
0.088805845
0.095547172
0.076293054
0.032476521
0.0072416676
0.011691072
0.062865202
0.089314415
0.094829781
0.078635949
0.037814377
0.0089475255
0.01967309
0.019651948
0.019650735
0.019650689
0.019650699
0.019650696
0.019650842
0.019653448
0.019681007
0.017000697
0.016695909
0.016686839
0.016683015
0.016682353
0.016684433
0.01669112
0.016709838
0.017003046
0.014889821
0.014662375
0.014656483
0.01465185
0.014650815
0.014653817
0.0146602
0.014669457
0.014889836
0.013235249
0.013053391
0.013048558
0.013044221
0.013043122
0.01304618
0.013051675
0.013058403
0.013234892
0.011909821
0.011759608
0.011753001
0.011747321
0.011745886
0.011749872
0.011756861
0.011764836
0.011909288
0.010832879
0.010707272
0.010698945
0.010691898
0.010690191
0.010695012
0.01070354
0.010713678
0.010831895
0.009954189
0.0098527426
0.0098482571
0.00984418
0.0098442409
0.0098459914
0.0098506368
0.00985981
0.009951768
0.0092448547
0.0091775486
0.0091981671
0.0092175525
0.0092367995
0.0092068552
0.0091862128
0.0091810389
0.0092388687
0.0086879197
0.0086825456
0.0087555877
0.0089066139
0.0090263687
0.0087914456
0.0087301105
0.0086681247
0.0086749773
0.008261552
0.0083431379
0.009628251
0.0245295
0.034045489
0.013786375
0.0085283621
0.0083014995
0.0082380469
0.0079195883
0.0084328876
0.032423381
0.12166442
0.15295167
0.074388324
0.012286527
0.0080022575
0.007884386
0.0075996219
0.01152786
0.093198256
0.22624527
0.25949203
0.16726738
0.035550434
0.0079117405
0.0075572214
0.007272723
0.022579339
0.14868276
0.27287493
0.30094236
0.22111453
0.072758291
0.0086758145
0.0072283912
0.0069661118
0.040092547
0.17933489
0.28540644
0.30865732
0.24189668
0.10615885
0.01150552
0.0069088556
0.0067142286
0.060018521
0.19219012
0.28074996
0.29966214
0.24486277
0.12786842
0.01750822
0.0066155489
0.0066189978
0.077414993
0.19438752
0.26706045
0.28223835
0.23789329
0.13954341
0.026477909
0.0063570369
0.0068207762
0.0897629
0.19018143
0.24942187
0.26155714
0.22580648
0.14425086
0.036838246
0.0061497147
0.0076274945
0.097385265
0.18247461
0.23085544
0.24061927
0.21166782
0.14422606
0.046869825
0.0060654053
0.0094284967
0.10133374
0.1731891
0.21297766
0.22092215
0.19725417
0.14125155
0.055563482
0.0061990783
0.01263135
0.10269815
0.16355473
0.19658351
0.20311712
0.18356951
0.13669884
0.062453163
0.006786843
0.017023589
0.1025581
0.15444871
0.18198399
0.18736787
0.17117663
0.13171012
0.06730753
0.0081345027
0.021956325
0.10218649
0.14638185
0.16931746
0.17375615
0.16034115
0.12719231
0.071143417
0.010438633
0.019679993
0.019651945
0.019650661
0.019650628
0.019650609
0.019650606
0.019650617
0.019650645
0.019650725
0.019654031
0.019676113
0.017005523
0.016695883
0.01668365
0.01667833
0.016676175
0.01667579
0.016676991
0.016680414
0.016688751
0.016712036
0.017008152
0.01489235
0.014662375
0.014652943
0.014644593
0.014640007
0.014639079
0.014641855
0.014648272
0.014658175
0.014669223
0.014893847
0.01323743
0.013053389
0.013045458
0.013035633
0.013028683
0.013027172
0.013031603
0.013040452
0.013050049
0.013057783
0.01323815
0.011911628
0.011759591
0.011749058
0.011736155
0.011726641
0.011724453
0.011730691
0.011742546
0.01175503
0.011764275
0.011911792
0.010833952
0.010707234
0.010694153
0.010679381
0.010669716
0.010666635
0.010673631
0.010686503
0.010701585
0.01071311
0.010833434
0.0099536057
0.0098526913
0.0098458592
0.0098453531
0.0098692347
0.0098601159
0.0098529824
0.009843635
0.0098499125
0.0098585569
0.009951706
0.0092408332
0.0091775293
0.0092113299
0.0092292475
0.0096480147
0.0099666127
0.0093618441
0.0092428432
0.009191005
0.0091773722
0.0092359448
0.0086779234
0.0086826088
0.0088245385
0.014507536
0.072372367
0.099479179
0.037070237
0.0094664401
0.0087502302
0.0086589593
0.0086674179
0.0082433137
0.008340849
0.014051432
0.1713781
0.42968613
0.49566032
0.3126202
0.057084224
0.0087251022
0.0082825076
0.0082246453
0.0078928911
0.0084416379
0.081439611
0.40341351
0.66584473
0.72607888
0.55486257
0.23211237
0.016698788
0.0079818214
0.0078664778
0.0075679461
0.01159378
0.184515
0.48547679
0.68797509
0.73153789
0.60372105
0.34149234
0.053834473
0.0077572855
0.0075392507
0.0072399661
0.022830805
0.23922875
0.48729252
0.6470605
0.68194721
0.58089363
0.37155436
0.10408573
0.0080407612
0.0072149416
0.0069231077
0.040541017
0.25843773
0.46073427
0.58459069
0.61068827
0.53395488
0.36770782
0.13916645
0.00957641
0.0069008712
0.0066317502
0.06059924
0.2591108
0.42090509
0.51387046
0.53271301
0.47648834
0.34786055
0.15783618
0.013246525
0.006610255
0.0063954461
0.077972383
0.24981825
0.37768197
0.44728516
0.46098038
0.41966986
0.3209048
0.16555704
0.019393619
0.0063462378
0.0062685837
0.090241203
0.2356046
0.33681289
0.38977977
0.39998942
0.36895988
0.29243571
0.16622702
0.02734244
0.0061197558
0.0063139603
0.097787575
0.21965059
0.30058711
0.34182237
0.34966569
0.3257098
0.26541398
0.16259145
0.035943916
0.0059486239
0.006680053
0.10167261
0.20379822
0.26943915
0.30228886
0.30848379
0.2895002
0.24108196
0.15662537
0.044123494
0.0059038487
0.0075878383
0.10297865
0.18904667
0.24304755
0.2697018
0.27469673
0.25935124
0.21982649
0.14967378
0.051285648
0.0060958056
0.0092719281
0.10279269
0.17588299
0.22071308
0.24266459
0.24676736
0.23414654
0.20149702
0.14276253
0.057013153
0.0067310339
0.011838169
0.10237052
0.16446291
0.20210486
0.22062039
0.22409184
0.213419
0.18595192
0.13657814
0.061643312
0.0081363154
0.019658113
0.019650735
0.019650627
0.019650591
0.019650571
0.019650567
0.019650577
0.019650604
0.019650653
0.019650986
0.019669572
0.016712263
0.016686829
0.016678324
0.01667461
0.016672862
0.016672525
0.016673551
0.016676142
0.016681619
0.016693124
0.017002084
0.01467006
0.01465646
0.014644575
0.014636373
0.014631631
0.014630653
0.014633568
0.014640057
0.01465011
0.014659662
0.014891921
0.013058645
0.01304851
0.0130356
0.013022692
0.013014179
0.013012358
0.013017732
0.013028821
0.013042487
0.013050484
0.013237534
0.011764792
0.011752914
0.011736096
0.011718103
0.011705593
0.011703116
0.011710746
0.011726911
0.011745146
0.011756368
0.011911958
0.010712871
0.010698814
0.0106793
0.010660556
0.010649431
0.010651838
0.01065147
0.010670239
0.010689444
0.010703741
0.010835039
0.0098570449
0.0098481174
0.0098453533
0.0098633929
0.0098203525
0.0098443086
0.0097821711
0.0098718304
0.0098441857
0.0098494595
0.0099573428
0.009174144
0.0091980871
0.0092306793
0.011935496
0.039763876
0.055293373
0.021301811
0.0095781026
0.0092406362
0.0091763143
0.0092515747
0.0086546797
0.0087542604
0.014629103
0.20908137
0.54849222
0.6359615
0.39268633
0.064921414
0.0090389933
0.0086874966
0.0087032172
0.0082769449
0.0096711304
0.17334554
0.69441626
1.1333167
1.2372805
0.9425217
0.42074556
0.035250497
0.0083417993
0.0082916101
0.0079539116
0.033202487
0.40574497
0.90292537
1.2920667
1.3887515
1.1208015
0.65866443
0.16703395
0.0090444033
0.0079624291
0.0078683369
0.095024528
0.48707093
0.86504443
1.080921
1.1845643
1.0204862
0.68313835
0.27841106
0.016077617
0.0076479849
0.0086546581
0.1506273
0.48835189
0.78669388
1.0099941
1.0648215
0.91131085
0.64382937
0.31882868
0.03356271
0.0073322538
0.011186706
0.1809337
0.461487
0.68770571
0.8340371
0.86617901
0.77247594
0.58253569
0.3242218
0.054969878
0.0071574879
0.016019879
0.19348562
0.42146338
0.58719409
0.68165431
0.70080073
0.64333917
0.51259523
0.31271408
0.075702093
0.0072564019
0.022978412
0.19542748
0.37810672
0.49992817
0.5633769
0.57555431
0.53827629
0.44645671
0.29293432
0.091744429
0.0078641411
0.031171044
0.19101072
0.33714143
0.42868664
0.47363069
0.48196242
0.45613402
0.38919835
0.27021784
0.10219973
0.009252741
0.039545001
0.18313598
0.30084446
0.37154919
0.40503127
0.41111215
0.39212145
0.34138666
0.24763079
0.10802977
0.011599968
0.047285113
0.17371728
0.26964264
0.32571017
0.3516914
0.35635687
0.34172833
0.30195736
0.22666373
0.11042829
0.014940951
0.054018745
0.16397941
0.24321118
0.28860763
0.30941572
0.31313744
0.30145288
0.26945938
0.20795299
0.11043666
0.019175919
0.05918811
0.15479231
0.22084526
0.25827123
0.27540529
0.27847343
0.26884568
0.24250278
0.19162135
0.1091252
0.023829556
0.063339591
0.14666084
0.20221321
0.23394593
0.2486938
0.25136125
0.24302132
0.22052121
0.17763804
0.10777862
0.028383507
0.019677318
0.01965298
0.019650689
0.019650609
0.019650571
0.019650549
0.019650542
0.019650555
0.019650583
0.019650632
0.01965078
0.019657058
0.017012293
0.016702036
0.016683005
0.016676164
0.016672855
0.016671158
0.016670819
0.016671839
0.016674263
0.016678869
0.016690004
0.016995885
0.014895517
0.014665485
0.014651817
0.014639972
0.014631609
0.014626597
0.01462555
0.01462866
0.014635417
0.014645407
0.014659093
0.014890606
0.013239151
0.013055455
0.013044145
0.013028607
0.013014132
0.013004634
0.013002593
0.013008595
0.013021001
0.013036646
0.013050665
0.01323624
0.011912078
0.01176147
0.011747184
0.01172651
0.011705514
0.011692989
0.011690183
0.011697899
0.011715594
0.01173739
0.011755373
0.011910144
0.010832969
0.010709193
0.01069171
0.01066954
0.010649371
0.010675501
0.010676714
0.010655229
0.010657882
0.010680565
0.010701394
0.010832692
0.0099505867
0.0098545361
0.0098442003
0.0098690356
0.0098209038
0.01051235
0.011111636
0.0099969851
0.0098560698
0.0098438033
0.0098486649
0.0099552537
0.0092347776
0.0091782026
0.0092220431
0.0096607094
0.040069324
0.18785788
0.24474417
0.10303905
0.014267411
0.0091955189
0.0091901968
0.0092523983
0.0086679881
0.0086776312
0.0089120217
0.073765765
0.55116259
1.0426632
1.1571054
0.82626913
0.26985619
0.013113805
0.0087419123
0.0087130825
0.0082299668
0.0083112296
0.025291339
0.43497853
1.1393615
1.709782
1.8312835
1.4630653
0.78019322
0.1480859
0.008917245
0.0083179885
0.0078783491
0.0083502719
0.12434709
0.66958909
1.1866032
1.7614694
1.9190957
1.6407865
0.97476867
0.36995302
0.019748828
0.0080065171
0.0075554346
0.010791852
0.22894395
0.69024937
1.0826293
1.5026511
1.7188297
1.4670041
0.9185272
0.45605144
0.057710534
0.0077805803
0.007232227
0.018771397
0.27496531
0.64855557
1.0111106
1.3340571
1.4055284
1.1886739
0.82769757
0.46266992
0.10127281
0.0079501212
0.0069186536
0.031200802
0.28703906
0.58569248
0.83473758
1.009385
1.0475906
0.93456419
0.71617513
0.44048561
0.13248985
0.0090909547
0.0066289066
0.04520785
0.28204187
0.51469451
0.68210948
0.77945043
0.79920648
0.73960834
0.6063209
0.40486082
0.15030657
0.011775579
0.0063724817
0.058418931
0.26809155
0.44791246
0.56368968
0.62279332
0.63397324
0.59943847
0.51312719
0.3651918
0.15833756
0.016168116
0.0061712589
0.069892596
0.25024757
0.39026533
0.47385673
0.5131275
0.52019001
0.49797312
0.43820408
0.3270787
0.15987976
0.022168447
0.0060653886
0.078818284
0.23152066
0.34220477
0.40520165
0.43338375
0.43830035
0.422663
0.37871762
0.29290847
0.15722434
0.029260234
0.0061688038
0.084700301
0.21351846
0.3025951
0.35182435
0.37327556
0.37696593
0.36517204
0.33130566
0.26326687
0.15210051
0.036386842
0.0066384104
0.087973346
0.19702772
0.26995105
0.30952246
0.32659661
0.32952335
0.32016127
0.29309385
0.23796486
0.14576303
0.042712432
0.0077620841
0.089334954
0.1823526
0.24287052
0.27549317
0.2896018
0.29203021
0.28427733
0.26195346
0.21642788
0.13914348
0.047843105
0.009922425
0.089776125
0.16962719
0.22079442
0.24876887
0.26115118
0.26331892
0.25644463
0.23708805
0.19839855
0.13298863
0.051788239
0.019687545
0.019652121
0.019650699
0.019650606
0.019650566
0.019650542
0.019650536
0.01965055
0.019650579
0.019650628
0.019650776
0.019654764
0.017007985
0.016698598
0.01668234
0.016675773
0.016672511
0.016670813
0.016670472
0.016671495
0.016673907
0.016678391
0.016688812
0.016715319
0.014891061
0.014662952
0.014650773
0.014639029
0.01463061
0.014625527
0.014624463
0.014627622
0.014634453
0.014644439
0.01465791
0.014669743
0.013235822
0.01305301
0.013043025
0.013027064
0.013012267
0.013002543
0.013000447
0.013006624
0.013019285
0.013035294
0.013049685
0.013057884
0.011909833
0.011758662
0.011745714
0.011724268
0.011702965
0.0116901
0.011687054
0.011695857
0.011712952
0.011735574
0.011754227
0.01176399
0.010831922
0.010705803
0.010689957
0.010666416
0.010651743
0.010676565
0.010672916
0.010677538
0.010652397
0.010678575
0.010700176
0.010711854
0.0099514292
0.0098505371
0.0098441059
0.0098602036
0.0098466471
0.011126078
0.012107037
0.010180789
0.0097661057
0.0098460084
0.0098484831
0.0098549175
0.0092392781
0.0091740822
0.009237426
0.0099925499
0.056044624
0.2459796
0.31117243
0.13991219
0.017691656
0.0092401066
0.0091950186
0.0091687824
0.0086794245
0.0086754266
0.009043567
0.10180471
0.64053168
1.1598748
1.2777659
0.93258183
0.33441721
0.016924346
0.0087565331
0.0086421732
0.0082521068
0.0083023511
0.035036383
0.50169074
1.2460679
1.8356727
1.9463773
1.584877
0.86659552
0.18902116
0.0093882195
0.0082541775
0.0079111564
0.0086274571
0.15557155
0.73064426
1.3243403
1.9238917
1.9724693
1.8268551
1.0520114
0.41942545
0.026474354
0.0079433232
0.0075909996
0.012605888
0.26166959
0.73391725
1.1881532
1.7226574
1.7423613
1.7028042
1.0533755
0.49519652
0.074156693
0.0076989002
0.0072622506
0.024061169
0.30264407
0.68391483
1.0677517
1.4083451
1.4677254
1.2595125
0.87035117
0.49388556
0.12248856
0.0079256765
0.0069438752
0.03949825
0.31004757
0.61223427
0.86793569
1.0489342
1.0867801
0.9713327
0.74510077
0.46527643
0.15284412
0.0091269076
0.0066640471
0.055484247
0.3008074
0.53385293
0.70183853
0.79985978
0.81952815
0.75955479
0.62549055
0.42400887
0.16828874
0.011662446
0.0064349964
0.070069414
0.28317861
0.46182076
0.57620958
0.63433439
0.64525018
0.61130881
0.52623625
0.37987606
0.17365677
0.015695813
0.006336942
0.081446804
0.26232891
0.40062388
0.48240939
0.5204165
0.5271857
0.50575486
0.44759644
0.33844165
0.17266699
0.021055775
0.0064312187
0.089152809
0.24125644
0.3501588
0.41143765
0.43845722
0.44311602
0.42820242
0.38576294
0.30185144
0.16782947
0.027212623
0.0068474529
0.093691559
0.22145294
0.30887759
0.35660629
0.37708272
0.38056154
0.36937284
0.3367926
0.27043909
0.16091677
0.033563432
0.0077723892
0.095742016
0.20356458
0.27501876
0.31333621
0.3296149
0.33237116
0.32350155
0.29749375
0.24380192
0.15313994
0.039703948
0.0094212389
0.096007045
0.18774948
0.24703646
0.2786371
0.292105
0.294397
0.28703998
0.2655736
0.22122606
0.14530052
0.045055651
0.011925855
0.095236189
0.17408658
0.22432348
0.25150222
0.26338357
0.26544464
0.25887974
0.24019226
0.20241028
0.13800302
0.04881333
0.019653523
0.019650696
0.019650616
0.019650577
0.019650555
0.019650549
0.019650561
0.01965059
0.01965064
0.019650799
0.019658584
0.016705418
0.016684418
0.016676973
0.016673535
0.016671828
0.01667149
0.016672504
0.016674971
0.01667986
0.016692199
0.016997436
0.014666677
0.01465377
0.014641799
0.014633516
0.014628621
0.014627603
0.014630624
0.014637253
0.014647247
0.014660741
0.014890632
0.013056131
0.013046074
0.01303148
0.013017617
0.01300851
0.013006583
0.013012308
0.013024187
0.013039075
0.013051903
0.013235898
0.011762268
0.011749685
0.011730479
0.011710552
0.011697763
0.01169579
0.01170289
0.011720268
0.011740634
0.01175695
0.011909556
0.010710211
0.010694759
0.010673366
0.010651312
0.010655248
0.010677501
0.010648696
0.010662909
0.0106842
0.010703414
0.010831559
0.0098551043
0.0098458312
0.0098531043
0.0097834469
0.010002186
0.010184484
0.0098496678
0.0098674158
0.0098434706
0.0098498946
0.0099525898
0.0091760345
0.0092074958
0.009371003
0.021681088
0.10437566
0.14064888
0.054510912
0.01095208
0.0092489764
0.0091841731
0.009246108
0.0086687492
0.0087948291
0.03816654
0.39762403
0.83107255
0.93482226
0.63565611
0.16620034
0.010238013
0.0087257243
0.0086999504
0.0083195495
0.014043495
0.31793724
0.95075158
1.4701742
1.5879846
1.2404614
0.6258253
0.087282333
0.0085145314
0.0082976079
0.0080782785
0.076042371
0.5598563
1.1294193
1.651412
1.8308433
1.5286632
0.8423726
0.28256285
0.012416101
0.0079793858
0.0088440939
0.16943077
0.6073508
1.0259619
1.4776532
1.7059751
1.4165917
0.81918336
0.38346441
0.034840202
0.0076897932
0.012386223
0.22294308
0.5835841
0.91536233
1.1932363
1.2610627
1.065063
0.75078298
0.4046323
0.067955116
0.0075915885
0.019720167
0.24337368
0.53598837
0.77493209
0.93674426
0.97230473
0.86677769
0.66178619
0.39394771
0.098087494
0.007985886
0.029882341
0.24607882
0.47798647
0.6448493
0.74076005
0.76009955
0.7012367
0.56919825
0.36840697
0.11902397
0.0093907969
0.041056685
0.23889716
0.42077854
0.53926116
0.6001237
0.61163497
0.57587796
0.48725165
0.33691663
0.13110676
0.012347127
0.051680205
0.22664349
0.36980056
0.45682044
0.49842493
0.50596858
0.48221164
0.41944564
0.30500881
0.13665731
0.017106521
0.06101535
0.21237287
0.32636593
0.39262784
0.42298546
0.42835382
0.41131133
0.36455265
0.27543514
0.13764975
0.023360708
0.068470888
0.19785328
0.29002647
0.34211918
0.36541608
0.36948692
0.35651995
0.32023106
0.24919731
0.13563977
0.030197367
0.073593444
0.18408355
0.25978355
0.30176544
0.32035416
0.3235916
0.31327492
0.28420139
0.22646792
0.13188548
0.036666606
0.076778044
0.17162182
0.23450937
0.26910327
0.28443528
0.28711382
0.27859315
0.25463944
0.20694954
0.12744202
0.042174088
0.079074013
0.16073171
0.21373205
0.24324235
0.25658047
0.25894365
0.25146892
0.23083793
0.19046565
0.12328277
0.046664004
0.01966223
0.019650841
0.019650644
0.019650604
0.019650583
0.019650578
0.019650589
0.019650619
0.01965067
0.019651304
0.019676765
0.016998358
0.016691109
0.016680399
0.016676129
0.016674253
0.016673901
0.016674969
0.016677808
0.016684314
0.016702493
0.017002589
0.014890846
0.014660156
0.014648222
0.014640007
0.014635376
0.014634427
0.014637243
0.01464362
0.014653797
0.014665897
0.014890705
0.013236457
0.013051571
0.013040335
0.013028705
0.013020906
0.013019225
0.013024162
0.013034286
0.013046285
0.013055916
0.013236275
0.011910352
0.011756675
0.011742339
0.011726706
0.011715429
0.011712849
0.011720228
0.011734387
0.011750107
0.011762246
0.011910899
0.010832104
0.010703281
0.01068622
0.010669967
0.01065768
0.010652305
0.010662865
0.010677565
0.010695393
0.010710497
0.0108338
0.0099516458
0.0098504027
0.0098434772
0.0098715794
0.0098554734
0.0097665243
0.0098674194
0.0098483973
0.0098463802
0.0098564048
0.0099547486
0.0092411331
0.0091863482
0.0092434136
0.0095948221
0.014426473
0.017821278
0.010963064
0.009259976
0.0092073894
0.0091799257
0.0092451241
0.008687043
0.0087313136
0.0095051552
0.066843518
0.27378864
0.33671058
0.16666347
0.017818741
0.0087840953
0.0086779128
0.0086888389
0.008271632
0.0085393507
0.059016999
0.42699507
0.78641983
0.86979515
0.62642472
0.21258219
0.012396326
0.0083370575
0.0082649649
0.0079477966
0.012504038
0.23657291
0.66504549
0.98069103
1.0549375
0.84290519
0.45184892
0.065399202
0.0081377917
0.0079261971
0.0076455575
0.036513653
0.34547292
0.68803178
0.92286282
1.0559766
0.81971074
0.52416832
0.16004295
0.0091604604
0.0076066923
0.0073560464
0.074285295
0.37469904
0.64749969
0.83090012
0.8720562
0.75126797
0.51807376
0.21675655
0.013893091
0.007279632
0.0072374499
0.10780945
0.37017835
0.58517797
0.71832283
0.74633346
0.66219598
0.48513743
0.23915793
0.023600605
0.0069740092
0.0074980964
0.12935381
0.34978343
0.51446766
0.60775137
0.62633672
0.56950861
0.43972604
0.24298938
0.036740165
0.0067278213
0.0085487008
0.14082235
0.32239885
0.44780768
0.51411589
0.5268231
0.48747831
0.39208312
0.2365633
0.050466016
0.0066412445
0.010921622
0.14534819
0.29360799
0.39020279
0.43891858
0.44801882
0.41961423
0.3479377
0.22483433
0.062610012
0.0068453735
0.01510953
0.14516279
0.26634878
0.34215668
0.37925563
0.3860799
0.36468228
0.30933061
0.21090727
0.072532113
0.0076296197
0.020735047
0.14205278
0.24184071
0.30256398
0.33172489
0.33703958
0.32033439
0.2764498
0.19663653
0.07949728
0.0093481092
0.026939535
0.13738871
0.22045272
0.26994855
0.29342984
0.29769246
0.28428651
0.24877175
0.1830972
0.083678083
0.012220755
0.03289946
0.13230829
0.20202192
0.24290575
0.26222951
0.26573806
0.25471153
0.2254519
0.17089374
0.085916265
0.016138844
0.038236389
0.12771636
0.18640024
0.22086264
0.23732279
0.24033387
0.23090148
0.20610878
0.16025554
0.087635602
0.020518047
0.019688023
0.019653447
0.019650725
0.019650653
0.019650632
0.019650628
0.01965064
0.01965067
0.019650854
0.019656676
0.017005905
0.016709828
0.016688743
0.016681611
0.016678861
0.016678388
0.01667986
0.016684309
0.016693273
0.016996625
0.014891535
0.014669417
0.014658135
0.014650069
0.014645371
0.014644416
0.014647238
0.014653787
0.014661094
0.014891995
0.013236855
0.013058308
0.013049948
0.013042387
0.013036559
0.013035234
0.013039048
0.013046277
0.013052296
0.013237495
0.011911282
0.011764663
0.011754845
0.011744963
0.011737233
0.011735468
0.011740583
0.011750091
0.011758343
0.011910561
0.01083374
0.01071343
0.010701316
0.010689183
0.01068035
0.010678435
0.010684136
0.010695372
0.010705892
0.010831104
0.0099533966
0.0098595557
0.0098496526
0.0098439996
0.0098437275
0.0098459984
0.0098434658
0.0098463803
0.00985179
0.0099491277
0.0092403701
0.0091810133
0.0091911466
0.0092409735
0.0091980939
0.0092417536
0.0092491993
0.009207472
0.0091786412
0.0092371348
0.0086766537
0.0086688026
0.0087516303
0.0090525712
0.013293851
0.017166551
0.010251383
0.0087845118
0.0086892955
0.0086830808
0.008240322
0.0083034684
0.0087461197
0.036469928
0.15135031
0.19084202
0.087540415
0.012402483
0.0083520642
0.0082705517
0.0078873978
0.0080061541
0.01722044
0.17121573
0.37443602
0.42165218
0.28290182
0.065343531
0.0086909855
0.0079532089
0.0075606917
0.0079305321
0.055698847
0.28278939
0.4598421
0.49709377
0.38377276
0.15987157
0.013112794
0.0076673605
0.00723255
0.0087600218
0.1068631
0.32249976
0.46566472
0.49544696
0.40494346
0.21660589
0.027603898
0.0074343466
0.006914153
0.0117514
0.14183981
0.32721124
0.44282462
0.46655038
0.39425591
0.23903521
0.049112055
0.007443857
0.006620661
0.018003807
0.16015054
0.31509544
0.40665896
0.42501772
0.36869543
0.2429029
0.071426619
0.0080343684
0.0063587397
0.02722098
0.16751149
0.29481062
0.36657396
0.38066488
0.33717016
0.23651184
0.08868476
0.0099628938
0.0061309629
0.037743715
0.16784877
0.27169765
0.32815112
0.3390612
0.30522782
0.2248133
0.10000894
0.014080145
0.0060063521
0.047839156
0.16393222
0.24880746
0.29375275
0.30234529
0.27562484
0.21090901
0.10643244
0.020755789
0.006044383
0.056536837
0.15773836
0.22760962
0.2639423
0.27083971
0.24936325
0.19665266
0.10921791
0.028735652
0.0064059746
0.063359479
0.15060258
0.2087227
0.23851378
0.24413284
0.22661494
0.18312321
0.10951346
0.036563011
0.0073403421
0.068119648
0.14354232
0.19225556
0.21688095
0.22150424
0.20708099
0.17092487
0.10848211
0.043293265
0.0091204655
0.071865817
0.13723802
0.17816857
0.19878
0.20264968
0.19058521
0.16028903
0.10730432
0.048813564
0.019681006
0.019654032
0.019650986
0.01965078
0.019650776
0.019650799
0.019651303
0.019656669
0.019677696
0.017003013
0.016712031
0.016693122
0.016689999
0.016688811
0.016692201
0.016702488
0.016996548
0.017003754
0.014889762
0.014669189
0.014659631
0.014659063
0.014657891
0.014660734
0.01466589
0.014891964
0.014890009
0.013234763
0.013057697
0.013050402
0.013050591
0.013049632
0.013051879
0.013055903
0.01323747
0.013234867
0.011909088
0.011764114
0.011756215
0.011755237
0.01175413
0.011756902
0.011762225
0.011910538
0.011908968
0.010831614
0.010712867
0.01070351
0.010701196
0.010700036
0.010703348
0.010710474
0.010831087
0.010830999
0.0099514332
0.0098582823
0.0098492001
0.0098485006
0.0098483614
0.0098498523
0.0098564066
0.0099491247
0.0099496149
0.009238601
0.0091772585
0.0091762399
0.009190642
0.0091951042
0.0091842879
0.0091800076
0.0092371721
0.0092340584
0.0086750456
0.0086594272
0.0086882533
0.0087426416
0.0087573404
0.008726083
0.0086781436
0.0086831867
0.0086652926
0.0082388031
0.0082842951
0.008346031
0.0089484866
0.0094143675
0.0085168118
0.0083374163
0.0082707286
0.008221474
0.0078859887
0.0079816434
0.0091179183
0.02029945
0.026804134
0.012435979
0.0081381725
0.0079534067
0.0078617757
0.0075593931
0.0077714105
0.016593508
0.059248073
0.074944959
0.03485896
0.0091555273
0.0076674246
0.0075336519
0.0072307237
0.0081007481
0.034812492
0.1034264
0.12350845
0.067926893
0.013857948
0.0074339001
0.0072092498
0.0069112537
0.0097587481
0.056811664
0.13459994
0.15387821
0.098111691
0.023514285
0.0074421049
0.0068953056
0.0066182045
0.013652846
0.077694761
0.15218663
0.16923332
0.1191148
0.036619717
0.0080295928
0.0066040084
0.0063594636
0.020064241
0.093620923
0.15995696
0.17449112
0.1312349
0.050349809
0.0099509961
0.0063424832
0.0061581634
0.028229378
0.10387389
0.16124155
0.17338985
0.13680912
0.062529313
0.014057032
0.0061256056
0.0060840748
0.036960191
0.10949061
0.15836083
0.16844819
0.13781555
0.072489657
0.02072062
0.005977573
0.0062430078
0.045181346
0.11168093
0.15304835
0.16144627
0.13580906
0.079483966
0.028698173
0.0059929658
0.0068844347
0.052337531
0.11150295
0.14655673
0.15359509
0.13205194
0.083682376
0.036531717
0.0062724782
0.0083193149
0.057979847
0.11003303
0.1398123
0.14569414
0.12760233
0.085934764
0.043273405
0.0070191931
0.010731505
0.06251687
0.10854903
0.13355721
0.1383462
0.12343639
0.087659319
0.048800666
0.0084870933
0.019676314
0.019669572
0.019657059
0.019654765
0.019658583
0.019676765
0.017008331
0.017002097
0.016995881
0.016715318
0.016997439
0.017002641
0.014893999
0.014891929
0.014890585
0.014669719
0.014890628
0.014890796
0.013238243
0.013237514
0.013236181
0.013057827
0.013235874
0.013236385
0.0119118
0.011911884
0.011910029
0.011763889
0.011909507
0.01191101
0.01083334
0.010834896
0.010832514
0.010711709
0.01083148
0.010833909
0.0099515224
0.0099571516
0.0099550406
0.0098547612
0.0099525003
0.0099548701
0.0092357522
0.0092514445
0.0092522667
0.0091687195
0.0092460838
0.0092453147
0.0086674272
0.008703446
0.008713376
0.0086424193
0.0087001363
0.0086891856
0.0082251928
0.008292676
0.0083192043
0.0082548499
0.0082981072
0.0082655048
0.0078678126
0.0079645773
0.0080095552
0.0079428744
0.007980107
0.0079267949
0.0075412633
0.0076516014
0.0077900746
0.00770336
0.0076907218
0.0076071376
0.0072172998
0.007339227
0.0079875453
0.0079425444
0.007592959
0.0072798677
0.0069033873
0.0071754311
0.0092033342
0.009173243
0.007987699
0.0069741624
0.0066128167
0.0073019923
0.012012007
0.011756274
0.0093956443
0.0067274752
0.0063494983
0.0079662748
0.016551954
0.01585373
0.012362172
0.0066397712
0.0061250088
0.0094442131
0.022718512
0.021280393
0.017143217
0.0068413068
0.005958091
0.011904556
0.029931911
0.027491464
0.023427375
0.0076213507
0.0059299103
0.015377375
0.037115067
0.033878364
0.03029548
0.0093364324
0.0061529174
0.01972759
0.043445782
0.040042129
0.03678881
0.012209869
0.0068519326
0.024451892
0.04854705
0.045395987
0.042310353
0.016136058
0.0083671225
0.029033028
0.052440396
0.04914178
0.046808178
0.020528372
0.019676314
0.019676765
0.017632662
0.017624105
0.019669572
0.019658583
0.017621314
0.017611796
0.019687546
0.017639063
0.017634999
0.019657058
0.019654765
0.017609406
0.017940159
0.019677408
0.017635077
0.017639059
0.019654764
0.019657059
0.017940148
0.017609403
0.019658583
0.019669572
0.017611799
0.017621313
0.019676765
0.019676314
0.017624106
0.017632663
0.0081280142