/*--------------------------------*- C++ -*----------------------------------*\
| =========                 |                                                 |
| \\      /  F ield         | OpenFOAM: The Open Source CFD Toolbox           |
|  \\    /   O peration     | Version:  2406                                  |
|   \\  /    A nd           | Website:  www.openfoam.com                      |
|    \\/     M anipulation  |                                                 |
\*---------------------------------------------------------------------------*/
FoamFile
{
    version     2.0;
    format      ascii;
    arch        "LSB;label=32;scalar=64";
    class       volScalarField;
    location    "225";
    object      nut;
}
// * * * * * * * * * * * * * * * * * * * * * * * * * * * * * * * * * * * * * //

dimensions      [0 2 -1 0 0 0 0];

internalField   nonuniform List<scalar> 
71615
(
0.0019974601
0.0019974125
0.0019737714
0.0019736074
0.0019523842
0.0019522803
0.0019337253
0.0019336709
0.0019173435
0.0019173356
0.0019031457
0.0019032127
0.0018915125
0.0018917497
0.0018835071
0.0018841476
0.0018807292
0.0018822187
0.001883905
0.0018868087
0.0018903073
0.0018947532
0.0018941292
0.001899123
0.0018924631
0.0018969064
0.0018876854
0.0018919304
0.0018830212
0.0018908842
0.0018815524
0.0018974121
0.0018908225
0.0019375436
0.0019240654
0.0020316976
0.002016547
0.0022251195
0.0022146102
0.0025632537
0.0026039468
0.0031086171
0.0032820583
0.0038895945
0.0019973547
0.0019971705
0.0019971273
0.0019971202
0.0019971317
0.0019972054
0.0019974284
0.0019736033
0.0019708423
0.0019707547
0.0019707297
0.0019707879
0.0019735148
0.0019736121
0.0019523145
0.0019499269
0.0019499042
0.0019498957
0.0019499167
0.0019522877
0.0019523138
0.0019337056
0.001931559
0.001931559
0.0019315523
0.0019315632
0.0019336903
0.0019337089
0.0019173711
0.0019154952
0.0019155128
0.0019154948
0.0019155076
0.001917358
0.0019173758
0.0019032526
0.0019018208
0.0019019154
0.0019018761
0.0019018714
0.0019032517
0.0019032523
0.001891783
0.0018913056
0.0018917205
0.0018916622
0.0018915236
0.0018918729
0.0018917624
0.0018840905
0.0018857679
0.0018872406
0.0018871851
0.0018865678
0.0018845677
0.0018840081
0.0018817877
0.0018878905
0.0018917537
0.0018918928
0.0018905073
0.0018834802
0.001881549
0.0018854571
0.0018981426
0.0019028003
0.0019005895
0.0019061999
0.0018897811
0.0018849106
0.0018921087
0.0019065035
0.0019896234
0.0020539712
0.0019264463
0.0019002303
0.001891142
0.0018957146
0.0019622662
0.0025862613
0.0029663729
0.0021828723
0.0019078402
0.0018944772
0.0018934328
0.0022284922
0.0043607703
0.0053954789
0.0030562749
0.0019146414
0.0018921638
0.0018884069
0.0029042933
0.0069244905
0.0082209401
0.0047774298
0.0019601265
0.0018866684
0.0018837401
0.0041217083
0.0094078619
0.010761156
0.006950065
0.0021031405
0.0018813181
0.001887854
0.0057569698
0.011513498
0.013128595
0.0090173159
0.0024461005
0.0018784032
0.0019189529
0.0074788106
0.013441048
0.015208885
0.010815451
0.0030998047
0.0018799015
0.001999839
0.0090535639
0.015253747
0.016997031
0.01249424
0.0041054926
0.0019075785
0.0021672838
0.010513107
0.01685129
0.018547214
0.014114197
0.0053347178
0.001981856
0.0024832322
0.01197604
0.018237514
0.01981857
0.015569188
0.0066662164
0.0021462812
0.0030011227
0.013367704
0.019412485
0.020847141
0.01687611
0.0080334479
0.0024680359
0.0037208657
0.014761105
0.02042711
0.021659586
0.018149253
0.0094057105
0.0030201187
0.0019972954
0.0019971189
0.0019971084
0.001997108
0.0019971081
0.0019971081
0.0019971092
0.0019971303
0.001997362
0.0019735349
0.0019707065
0.0019706179
0.0019705833
0.0019705772
0.0019705963
0.0019706581
0.0019708174
0.0019735573
0.0019522677
0.0019498942
0.0019498293
0.0019497849
0.0019497744
0.0019498043
0.0019498664
0.0019499202
0.0019522625
0.0019336722
0.0019315635
0.0019315208
0.0019314897
0.0019314804
0.0019315047
0.0019315458
0.0019315643
0.0019336529
0.0019173658
0.0019155228
0.0019155278
0.0019155374
0.0019155379
0.0019155338
0.0019155269
0.0019155321
0.001917321
0.0019033203
0.0019019439
0.0019022171
0.0019024546
0.001902521
0.0019023471
0.0019020757
0.0019019517
0.0019032027
0.0018920386
0.0018918236
0.0018932225
0.0018943509
0.0018948258
0.0018938576
0.0018924799
0.0018916836
0.0018917196
0.0018847708
0.0018875823
0.0018931716
0.0018976549
0.0019017427
0.0018952365
0.0018900091
0.0018867022
0.0018839701
0.0018832629
0.001893464
0.0019049848
0.0019500164
0.0019702904
0.0019095817
0.001901558
0.0018897752
0.0018815047
0.0018881135
0.0019086565
0.0021733992
0.0049293802
0.006513746
0.0029594968
0.0019403917
0.0019018106
0.0018848366
0.0018960957
0.0020104618
0.0064126936
0.017664316
0.021024024
0.012142996
0.0027961976
0.0019139325
0.0018910173
0.0019005923
0.0027584323
0.01451836
0.029409869
0.033005782
0.022937894
0.0070684705
0.0019703052
0.0018942895
0.0018987574
0.0050724243
0.021367227
0.036025678
0.039287879
0.029954779
0.01219884
0.0022395437
0.0018918347
0.0018968764
0.007993501
0.02601432
0.03923902
0.042079346
0.033864192
0.016666392
0.002993437
0.0018861602
0.00190353
0.010933217
0.028857193
0.040549229
0.043019371
0.035840862
0.020215321
0.0044501378
0.0018809646
0.0019488344
0.013709376
0.030576174
0.040904695
0.043059675
0.03676178
0.02280531
0.0063887348
0.0018792973
0.0020779267
0.016183249
0.031612548
0.04077006
0.042658096
0.037111
0.024612803
0.0083189462
0.0018873527
0.0023664719
0.018229464
0.032225664
0.040375303
0.042039735
0.037129358
0.025892217
0.010063353
0.0019282322
0.0028834092
0.019808802
0.032556854
0.03985519
0.041338252
0.036951639
0.026799759
0.011729476
0.0020338038
0.003677112
0.021040193
0.032720453
0.039306014
0.040639649
0.036685668
0.02748088
0.013371517
0.0022596844
0.0046979591
0.022054091
0.032831494
0.038792357
0.039989455
0.036426
0.028044157
0.014899066
0.0026892101
0.0058732699
0.023113817
0.033002992
0.038375964
0.039445027
0.036246999
0.028644147
0.016391238
0.003341493
0.0019973545
0.0019971189
0.0019971078
0.0019971077
0.0019971076
0.0019971076
0.0019971076
0.0019971078
0.0019971082
0.001997135
0.0019973846
0.0019736017
0.0019707062
0.0019705889
0.001970541
0.001970522
0.0019705187
0.0019705293
0.0019705597
0.0019706352
0.0019708402
0.0019736687
0.0019523128
0.0019498941
0.0019497953
0.001949717
0.0019496776
0.0019496701
0.0019496932
0.001949751
0.0019498452
0.0019499208
0.0019523343
0.0019337041
0.0019315632
0.0019314986
0.001931435
0.0019314034
0.0019313983
0.0019314153
0.0019314646
0.0019315321
0.0019315581
0.0019336981
0.0019173699
0.0019155219
0.0019155354
0.0019156018
0.001915705
0.0019157288
0.0019156553
0.0019155604
0.0019155297
0.0019155131
0.0019173368
0.001903251
0.0019019425
0.0019023851
0.0019031712
0.0019040337
0.0019041033
0.0019036351
0.0019027281
0.0019021524
0.0019018856
0.0019031593
0.0018917807
0.0018918229
0.0018940623
0.0018981438
0.0019051761
0.0019042552
0.0019012613
0.0018957303
0.0018928332
0.0018914708
0.001891537
0.0018840895
0.0018875879
0.0018964388
0.0018988145
0.0019993407
0.0020585877
0.0019276883
0.0019028822
0.0018911971
0.0018861083
0.0018834849
0.0018817966
0.0018934737
0.0019152124
0.002990968
0.011191668
0.014244911
0.0066855371
0.0020504323
0.0019048946
0.0018883781
0.0018804699
0.0018854922
0.0019081034
0.0030166632
0.02187399
0.045686367
0.051477282
0.03516082
0.0094517634
0.0019916409
0.001898976
0.0018830521
0.001892189
0.0020126431
0.012555913
0.045412793
0.070187167
0.075613321
0.059926384
0.028416961
0.003643187
0.0019119621
0.0018886049
0.0018958423
0.0027716744
0.024319294
0.056770755
0.076975936
0.081120689
0.068760854
0.041540227
0.0094188855
0.0019349408
0.0018918128
0.0018935959
0.0051147271
0.0318403
0.060024564
0.076785777
0.080284278
0.070000565
0.047195447
0.015774487
0.0020942774
0.0018899323
0.0018886154
0.0080484797
0.03572669
0.060021874
0.07413493
0.077038971
0.068451779
0.049044143
0.020711628
0.0025528365
0.0018849589
0.0018838639
0.011005368
0.037545029
0.058564956
0.070449766
0.072854637
0.065695728
0.049146455
0.024098806
0.003534949
0.0018799169
0.0018886423
0.013782335
0.038293546
0.056545763
0.066646678
0.068667041
0.062624883
0.048421943
0.026302505
0.0050492173
0.0018763058
0.001920751
0.016252748
0.038461303
0.05442607
0.063140595
0.064871408
0.059679019
0.047351925
0.027789933
0.0067947903
0.0018785309
0.0020041545
0.018288913
0.038321616
0.052415524
0.060051067
0.061561338
0.057020675
0.046185271
0.028806553
0.0084378949
0.0018934026
0.0021760753
0.019859788
0.038028954
0.050597325
0.057377789
0.058715104
0.054687343
0.045047142
0.029484603
0.0099597546
0.0019445561
0.0024997265
0.021081954
0.037685238
0.049001452
0.055077451
0.05627261
0.052666968
0.044010991
0.029938536
0.011460086
0.0020673406
0.0030272898
0.02209412
0.037372984
0.047611154
0.053092815
0.054170134
0.050916962
0.043101691
0.030305923
0.012933755
0.0023272014
0.0037557165
0.023148112
0.037155593
0.046472511
0.051482958
0.052469511
0.049490202
0.042362949
0.030721818
0.014408574
0.0028108769
0.0019971705
0.0019971084
0.0019971077
0.0019971074
0.0019971071
0.001997107
0.0019971072
0.0019971076
0.0019971078
0.0019971105
0.0019972663
0.0019708422
0.0019706177
0.0019705408
0.0019705079
0.0019704919
0.0019704887
0.0019704984
0.0019705216
0.0019705704
0.0019706803
0.0019735566
0.0019499265
0.0019498287
0.0019497165
0.001949649
0.0019496169
0.0019496112
0.0019496295
0.001949678
0.001949768
0.0019498692
0.0019523108
0.0019315577
0.0019315195
0.0019314341
0.0019313895
0.0019313971
0.0019314046
0.0019313895
0.0019314043
0.0019314772
0.0019315385
0.0019337237
0.0019154923
0.0019155253
0.0019156005
0.0019158425
0.0019161745
0.001916301
0.0019159973
0.0019157068
0.0019155453
0.0019154992
0.0019174311
0.001901816
0.001902214
0.0019031715
0.0019047709
0.0019066274
0.0019079024
0.0019052386
0.0019040867
0.0019025711
0.0019019384
0.001903441
0.0018913014
0.0018932235
0.0018981634
0.0019055245
0.0019010916
0.0019077492
0.0018894714
0.0019063551
0.0018950128
0.0018919123
0.0018923417
0.0018857763
0.0018931717
0.0018991339
0.0024380527
0.0070786815
0.009185091
0.0041435977
0.0019843072
0.0019026706
0.001887966
0.0018855811
0.0018879488
0.0019045995
0.0030134521
0.02504924
0.053809792
0.060698786
0.041086095
0.010158731
0.001971458
0.0018941845
0.0018852402
0.0018982963
0.0021811534
0.022059549
0.068310073
0.10305602
0.1107802
0.088399115
0.044777187
0.0066320333
0.0019072108
0.0018921341
0.0019066241
0.0065347723
0.045626773
0.090880028
0.12134857
0.1283043
0.10846549
0.069500954
0.021988537
0.002145652
0.0019019239
0.0019658292
0.014724491
0.056927309
0.093340508
0.11092842
0.11890246
0.10599846
0.076503471
0.034746721
0.0036998659
0.0019082666
0.0022430231
0.021589384
0.060140466
0.090461935
0.11007407
0.11451313
0.10176121
0.076471288
0.041214124
0.0070465909
0.0019105991
0.0029436183
0.026206565
0.060114457
0.085438351
0.1005988
0.10379621
0.094360852
0.07391421
0.043839911
0.010310931
0.0019437672
0.0041933754
0.029020211
0.058641133
0.079750443
0.091651953
0.094057193
0.086846924
0.070281077
0.044610384
0.013368955
0.0020487218
0.005850914
0.030719564
0.056609061
0.07442097
0.084120823
0.086039339
0.080242795
0.06650704
0.044479422
0.016046243
0.002290666
0.0075766178
0.031737888
0.054479027
0.069778756
0.077965481
0.079569379
0.074706797
0.063017802
0.043907773
0.01831709
0.0027428776
0.0091493809
0.032331714
0.05245999
0.065834451
0.072936124
0.074321984
0.070114211
0.05993964
0.043150674
0.020141265
0.0034166225
0.010612479
0.032646106
0.050634721
0.062503
0.068781915
0.070005219
0.066288455
0.057279093
0.042344138
0.021540445
0.0042548901
0.012076264
0.032796177
0.04903339
0.059675897
0.065302197
0.066398768
0.063067099
0.054995562
0.041573735
0.022611512
0.0052396575
0.013464939
0.032897472
0.047638556
0.05726725
0.062371363
0.063367807
0.060341622
0.053030646
0.040889472
0.023477477
0.0063142096
0.014855456
0.033060439
0.046496361
0.055342228
0.060073258
0.061000683
0.058187564
0.051439089
0.040340857
0.024405911
0.00744012
0.0019974557
0.0019971273
0.001997108
0.0019971076
0.0019971071
0.0019971065
0.0019971063
0.0019971067
0.0019971073
0.0019971077
0.0019971086
0.0019971623
0.0019737662
0.0019707546
0.0019705829
0.0019705215
0.0019704916
0.0019704751
0.0019704716
0.001970482
0.0019705048
0.0019705456
0.0019706476
0.0019734883
0.0019523808
0.0019499037
0.001949784
0.0019496765
0.0019496163
0.0019495902
0.001949586
0.0019496001
0.0019496419
0.0019497237
0.0019498546
0.0019522838
0.001933722
0.0019315574
0.0019314877
0.0019314015
0.0019313962
0.0019314575
0.0019314765
0.0019314251
0.0019313876
0.0019314389
0.0019315346
0.0019336982
0.0019173393
0.0019155092
0.001915534
0.0019157027
0.0019161745
0.0019169844
0.0019171508
0.0019165839
0.001915888
0.0019155848
0.0019155134
0.0019174085
0.0019031394
0.0019019102
0.0019024532
0.0019040349
0.001906639
0.0019161007
0.0019170184
0.0019108591
0.0019049305
0.0019030531
0.0019020839
0.0019034514
0.0018915043
0.0018917186
0.0018943963
0.0019051695
0.0019012392
0.0020565061
0.0021671637
0.0019595008
0.0019015727
0.0018974905
0.0018926555
0.0018925031
0.0018835037
0.0018872487
0.0018985946
0.0020016423
0.0071237157
0.023225318
0.028494203
0.014658613
0.002877655
0.001891376
0.0018914127
0.0018862418
0.0018807509
0.0018918693
0.0019507762
0.011345295
0.054018368
0.091571333
0.099962963
0.075372957
0.03067209
0.0027176008
0.0019048538
0.0018872201
0.0018839868
0.0019024743
0.0050605517
0.046127394
0.10346134
0.14363479
0.15186927
0.12678766
0.075409108
0.019864477
0.0020352758
0.0018963528
0.0018904688
0.0019947961
0.017947123
0.070493151
0.11260187
0.15224407
0.16310154
0.14425462
0.096826954
0.042273777
0.004247396
0.0019095725
0.0018943439
0.0026139674
0.029684696
0.0771696
0.11102843
0.14051295
0.15488745
0.13829774
0.098030263
0.05374375
0.010421315
0.0019356202
0.0018927016
0.0044432399
0.036255555
0.076927465
0.11014858
0.1348231
0.14025805
0.1240478
0.09424253
0.057360339
0.016119941
0.0020582199
0.0018879461
0.0070394341
0.039429786
0.074252021
0.10065588
0.11740261
0.12098242
0.11038768
0.088450489
0.057677283
0.020380763
0.0024242985
0.0018833013
0.0095233832
0.040712739
0.070548081
0.091696976
0.10381508
0.10627841
0.098881506
0.082164128
0.056537045
0.023479067
0.0031698941
0.00188212
0.011627555
0.041045797
0.066730287
0.0841577
0.093635225
0.095506227
0.08983395
0.076412771
0.054796085
0.025675185
0.0042365867
0.0018920812
0.013562175
0.040891957
0.063212402
0.077996596
0.085854179
0.087385946
0.082722582
0.071472367
0.052911432
0.027175752
0.0055142025
0.0019274787
0.015373401
0.040481084
0.060113239
0.072962959
0.079732272
0.081046332
0.077040913
0.0673096
0.051091618
0.028175039
0.006946062
0.0020237934
0.016965585
0.039948053
0.057432084
0.068805463
0.074780852
0.075940616
0.072406089
0.063808949
0.049419607
0.028848655
0.0084202043
0.0022299819
0.018345278
0.03938815
0.055125378
0.06532318
0.070687833
0.071730433
0.068554854
0.06084371
0.047930741
0.029311556
0.0098603406
0.002634114
0.019512434
0.03886544
0.053135591
0.062390345
0.067279302
0.06823182
0.065333326
0.058321212
0.046619242
0.029663477
0.011213124
0.0033327661
0.020518393
0.03844149
0.051521775
0.060090827
0.064661878
0.065556653
0.062838339
0.056311718
0.045537748
0.030008301
0.012454803
0.0019974149
0.0019971202
0.0019971081
0.0019971076
0.001997107
0.0019971063
0.0019971061
0.0019971065
0.0019971072
0.0019971077
0.0019971086
0.0019971405
0.0019736069
0.0019707296
0.0019705768
0.001970518
0.0019704882
0.0019704714
0.0019704679
0.0019704784
0.0019705015
0.0019705413
0.001970636
0.0019708709
0.0019522801
0.0019498951
0.0019497732
0.0019496687
0.0019496101
0.0019495855
0.0019495816
0.0019495948
0.0019496349
0.0019497147
0.0019498422
0.0019499219
0.0019336703
0.0019315505
0.001931478
0.0019313958
0.0019314031
0.0019314761
0.0019314971
0.0019314417
0.0019313865
0.0019314305
0.0019315271
0.0019315425
0.0019173337
0.001915491
0.001915534
0.0019157264
0.0019163017
0.0019171517
0.0019172995
0.0019168416
0.0019159296
0.0019155969
0.0019155179
0.0019154561
0.0019032083
0.0019018709
0.0019025193
0.0019041102
0.0019079284
0.0019170097
0.0019169844
0.0019154591
0.0019047825
0.0019031849
0.0019021434
0.0019017136
0.0018917456
0.0018916628
0.0018948492
0.0019042979
0.0019082815
0.0021698165
0.0023490534
0.0019868489
0.0018873175
0.0018984453
0.0018929341
0.0018910068
0.0018841544
0.0018872157
0.0019018841
0.0020635749
0.0092812618
0.028603045
0.034186737
0.018393601
0.0035071959
0.0019010364
0.001892436
0.0018849978
0.0018822648
0.0018919792
0.0019735407
0.014499993
0.061047052
0.10015316
0.10869751
0.083415529
0.036270688
0.003407769
0.0019071577
0.001886109
0.0018869314
0.0019011621
0.0066700429
0.051966748
0.11134948
0.15211762
0.15978003
0.13521849
0.082415363
0.0239859
0.0021301542
0.0018950889
0.0018949515
0.0020598448
0.021275455
0.075954155
0.12262894
0.16332652
0.16920723
0.15644531
0.10303797
0.047079361
0.005458619
0.001907317
0.0018993366
0.0029956813
0.033210739
0.081289659
0.11908212
0.15505116
0.16052305
0.15352326
0.10864392
0.057797831
0.012537672
0.001925721
0.0018971123
0.0054609537
0.039460808
0.080434032
0.11468361
0.14040451
0.14536392
0.12933757
0.098097381
0.06075068
0.018685593
0.0020699874
0.0018921818
0.0083007415
0.042226131
0.077169195
0.10391664
0.12106486
0.12466481
0.1138627
0.091492949
0.060568349
0.022934819
0.0024548713
0.0018911107
0.010850042
0.043148206
0.072964222
0.094143585
0.10632837
0.10879854
0.10135467
0.084585947
0.059000538
0.025863549
0.0031792597
0.0018983837
0.013224905
0.043174845
0.068760172
0.086106106
0.095541489
0.097402217
0.091752661
0.078401667
0.056908428
0.027820112
0.004259068
0.001939892
0.015307621
0.042761815
0.064952342
0.079624507
0.087413832
0.088930357
0.084308547
0.073157178
0.054742847
0.029101545
0.0055748795
0.0020367079
0.017096739
0.042133099
0.061633109
0.074369614
0.081069974
0.082369303
0.0784059
0.068773309
0.052698775
0.02990446
0.0069149987
0.0022352348
0.018645205
0.041423958
0.058779778
0.070047594
0.075961491
0.077108396
0.073611048
0.065103157
0.05084656
0.03042317
0.0082023996
0.0025815568
0.019911764
0.040718862
0.056331639
0.066437213
0.071749321
0.072781049
0.069637012
0.06200228
0.049207932
0.030751355
0.0094925617
0.0031386246
0.020932471
0.040063034
0.054224624
0.063403248
0.068249239
0.069192895
0.06632001
0.059370313
0.047766901
0.030966334
0.010770859
0.0039333866
0.021740761
0.039513822
0.052520666
0.061034136
0.065573161
0.066461287
0.063761927
0.057281389
0.046577824
0.031149811
0.011874247
0.0019971317
0.0019971081
0.0019971076
0.0019971072
0.0019971067
0.0019971065
0.0019971068
0.0019971074
0.0019971078
0.0019971087
0.0019971749
0.0019707877
0.0019705958
0.0019705286
0.001970498
0.0019704817
0.0019704783
0.0019704884
0.0019705111
0.0019705544
0.0019706675
0.0019735017
0.0019499161
0.0019498032
0.0019496918
0.0019496284
0.0019495995
0.0019495945
0.0019496105
0.0019496554
0.0019497406
0.0019498692
0.0019522762
0.0019315613
0.0019315022
0.0019314127
0.001931388
0.0019314245
0.0019314415
0.0019314028
0.001931391
0.0019314536
0.0019315412
0.001933676
0.0019155035
0.0019155298
0.0019156527
0.0019159983
0.0019165869
0.001916843
0.0019162775
0.0019158012
0.0019155637
0.0019155088
0.0019173589
0.0019018658
0.0019023449
0.0019036409
0.0019052675
0.0019109001
0.0019154675
0.0019074438
0.0019045811
0.0019028287
0.0019020211
0.0019033271
0.0018915238
0.0018938778
0.001901341
0.0018898251
0.0019604542
0.0019874306
0.0019096568
0.0019059541
0.0018963444
0.0018923273
0.0018921788
0.0018865992
0.001895368
0.0019295983
0.0042095551
0.01479915
0.018462681
0.0090923233
0.0022500838
0.0019038935
0.0018896746
0.0018854488
0.0018906296
0.0019101723
0.0068407149
0.041492975
0.075723086
0.083573983
0.060616879
0.021040883
0.0021982573
0.0019011982
0.0018855176
0.001906515
0.0030067865
0.035623848
0.088985497
0.12723114
0.13540286
0.11090135
0.062550588
0.013272174
0.0019374243
0.0018938282
0.0019277586
0.012334249
0.060340643
0.10899443
0.14481485
0.15665146
0.13668804
0.085718764
0.033683502
0.0028225641
0.0019053312
0.0021925129
0.023153328
0.06905396
0.1063326
0.13881937
0.15368212
0.13491203
0.08921559
0.046092484
0.0070682894
0.0019171358
0.0030877508
0.030144818
0.070217766
0.10202429
0.12430752
0.12943453
0.11450365
0.08703039
0.050954251
0.011901544
0.0019711414
0.0048343558
0.034027414
0.068625927
0.094544923
0.11053857
0.11393212
0.10382715
0.082635003
0.0522051
0.016005009
0.0021540997
0.0070223883
0.035979511
0.06583892
0.086982033
0.098981445
0.10140218
0.09408762
0.077470146
0.051845933
0.019231151
0.0025937461
0.0090919386
0.036884288
0.062745873
0.080348727
0.089908388
0.091788021
0.086066148
0.072530295
0.05075391
0.021758546
0.003404372
0.010892157
0.03722276
0.05978433
0.074794747
0.082782738
0.084337056
0.07959273
0.068172278
0.049392021
0.023643403
0.0045405653
0.012578931
0.037232856
0.057114732
0.070190246
0.077092122
0.078430178
0.074343197
0.064438232
0.047992361
0.025001918
0.0058833072
0.014202908
0.037048121
0.054772932
0.066356004
0.07245114
0.073632481
0.07002538
0.061267396
0.046660826
0.025950383
0.0072972964
0.015659836
0.03677601
0.052745789
0.06312823
0.068595359
0.069656383
0.066418921
0.058567998
0.045454328
0.026656718
0.0087107866
0.016967978
0.036511131
0.050990205
0.060397776
0.065370394
0.066337842
0.063388798
0.056261266
0.04438903
0.027232047
0.010071294
0.018238693
0.036327946
0.049559246
0.058240268
0.062873134
0.063778789
0.061022759
0.054410616
0.04351372
0.027832584
0.011368317
0.0019972054
0.0019971091
0.0019971078
0.0019971075
0.0019971073
0.0019971072
0.0019971074
0.0019971077
0.0019971079
0.0019971125
0.0019973264
0.0019735145
0.0019706578
0.0019705593
0.0019705213
0.0019705046
0.0019705014
0.0019705112
0.0019705363
0.0019705949
0.0019707588
0.0019735591
0.0019522865
0.0019498655
0.00194975
0.0019496772
0.0019496414
0.0019496347
0.0019496555
0.0019497082
0.0019498038
0.0019499079
0.0019522911
0.0019336876
0.0019315435
0.0019314625
0.0019314029
0.001931387
0.0019313864
0.0019313911
0.0019314275
0.0019315053
0.0019315645
0.0019337048
0.0019173524
0.0019155226
0.0019155575
0.0019157062
0.0019158894
0.0019159312
0.001915802
0.0019156172
0.0019155343
0.0019155278
0.0019174015
0.0019032427
0.0019020712
0.0019027295
0.0019040938
0.001904944
0.0019047959
0.001904585
0.001903327
0.0019023405
0.0019019509
0.0019033477
0.0018918629
0.0018924868
0.0018957646
0.0019063534
0.0019015319
0.0018873982
0.0019059631
0.0018993778
0.0018938285
0.0018917742
0.0018920441
0.0018845717
0.0018900675
0.0019030091
0.0019873397
0.0029072838
0.0035301589
0.0022521651
0.0019067741
0.0018954577
0.0018872299
0.0018847656
0.0018835383
0.0019017463
0.0020577398
0.010383342
0.031013558
0.036458834
0.021083624
0.0035848844
0.0019073224
0.0018920103
0.001883359
0.0018899476
0.0019423989
0.0096856878
0.045311692
0.075890097
0.082652352
0.062598064
0.025714795
0.0027038756
0.001908519
0.0018885466
0.0019004915
0.0028387268
0.028845511
0.07003069
0.097264013
0.10324532
0.085754708
0.050068542
0.010754345
0.001938371
0.0018969658
0.0019082369
0.0072135899
0.041935458
0.076914178
0.098356754
0.10882675
0.089250558
0.060713936
0.021738675
0.0022577716
0.0019015934
0.0019155958
0.012380146
0.047512384
0.076793126
0.094500165
0.09822855
0.087060955
0.063328955
0.02924623
0.003403024
0.0019000054
0.0019628734
0.01686442
0.049303569
0.074168409
0.088646876
0.091598593
0.082663032
0.062839697
0.033374338
0.0055693543
0.0018986275
0.0021112052
0.020414377
0.049363685
0.0704848
0.082316855
0.084669821
0.07749445
0.060968218
0.035460035
0.0081167112
0.0019069966
0.0024645566
0.022986941
0.048607084
0.066674608
0.07653609
0.078469848
0.072551272
0.058603098
0.036458008
0.010369888
0.0019551262
0.0031342021
0.024776132
0.047513149
0.063159305
0.07157539
0.073214597
0.068191029
0.05620631
0.03684591
0.01232234
0.0020863457
0.0041576617
0.02603624
0.046328229
0.06006183
0.067398005
0.068823212
0.064455573
0.05397643
0.036887585
0.014214729
0.0023707752
0.0053998977
0.026934766
0.04517542
0.057386452
0.063886355
0.065147577
0.06128383
0.051984624
0.036738555
0.015951191
0.0028885887
0.0067422839
0.027605152
0.044127104
0.055091217
0.060912592
0.062042537
0.058583767
0.050248747
0.036513237
0.017457524
0.0036335913
0.0081173147
0.028160769
0.043207621
0.053116962
0.058383429
0.059407354
0.05627647
0.048741491
0.036303328
0.018745024
0.0045856927
0.0094927218
0.028754018
0.042460815
0.051518365
0.0563691
0.057316218
0.05442549
0.047509213
0.036177308
0.01998027
0.0056646289
0.001997429
0.0019971303
0.0019971082
0.0019971078
0.0019971077
0.0019971077
0.0019971078
0.0019971079
0.001997109
0.001997159
0.0019736129
0.0019708173
0.0019706352
0.0019705704
0.0019705456
0.0019705414
0.0019705548
0.0019705951
0.001970681
0.0019734832
0.0019523143
0.0019499196
0.0019498447
0.0019497676
0.0019497235
0.0019497148
0.0019497411
0.0019498041
0.0019498813
0.0019522901
0.0019337082
0.0019315624
0.0019315306
0.0019314761
0.0019314383
0.0019314305
0.0019314542
0.0019315058
0.001931555
0.0019336765
0.001917373
0.001915528
0.0019155266
0.0019155438
0.0019155846
0.0019155974
0.0019155647
0.0019155349
0.0019155206
0.0019172979
0.0019032466
0.0019019459
0.0019021497
0.0019025732
0.0019030582
0.0019031901
0.0019028321
0.0019023417
0.0019019691
0.0019031168
0.0018917562
0.0018916833
0.001892843
0.0018950423
0.0018975298
0.0018984783
0.0018963595
0.0018938331
0.0018919508
0.0018916315
0.0018840135
0.0018867338
0.0018912696
0.0019027733
0.0018919177
0.0019013781
0.0019039304
0.0018954728
0.0018880263
0.0018842352
0.001881595
0.0018898958
0.0019051239
0.0019736886
0.0027497063
0.0034520163
0.0022005676
0.0019073937
0.0018947671
0.0018832827
0.001885035
0.0019021035
0.001995116
0.006812014
0.020193348
0.024158063
0.013298387
0.002705067
0.0019096008
0.0018901658
0.0018913524
0.0019145788
0.00374
0.022412868
0.04269479
0.047281821
0.033709433
0.010747589
0.0020676364
0.0019016162
0.0018947282
0.0019750378
0.0096468674
0.03520404
0.054117715
0.057975473
0.046115291
0.021716571
0.0030782563
0.0019119286
0.0018924146
0.0022587396
0.016091658
0.041611793
0.057669826
0.06090017
0.050973395
0.029227705
0.005855368
0.0019324897
0.0018869253
0.0030491614
0.02104005
0.044183183
0.057936486
0.060697075
0.052222686
0.033359304
0.0090918912
0.0020119415
0.0018816079
0.0045546224
0.024389407
0.044904615
0.056754422
0.059111496
0.051865751
0.035445641
0.012349495
0.0022463228
0.0018789471
0.0065256405
0.026563087
0.044731315
0.05498039
0.057004766
0.050774947
0.036448196
0.015256204
0.0028252063
0.0018809473
0.0084620572
0.028025856
0.044124815
0.053069366
0.054827567
0.049414241
0.036841416
0.017724959
0.0039084295
0.0019103872
0.010211392
0.029017553
0.043338606
0.051228319
0.052774141
0.04801593
0.036887371
0.019639478
0.0054485499
0.0019888203
0.011886859
0.029672313
0.04250802
0.049539305
0.050914585
0.046685513
0.036740859
0.021099043
0.0071107747
0.0021604728
0.013533197
0.030105358
0.041718099
0.048036749
0.049270117
0.04547968
0.03651776
0.022233738
0.0087226458
0.002496132
0.015056189
0.030456648
0.041017817
0.046714139
0.047824333
0.044414635
0.036309669
0.023214041
0.010252616
0.0030675169
0.016540809
0.030859091
0.040456415
0.045623878
0.046631588
0.043539514
0.036184955
0.024205939
0.011729724
0.001997362
0.001997135
0.0019971105
0.0019971086
0.0019971086
0.0019971087
0.0019971125
0.001997159
0.0019973334
0.0019735569
0.0019708402
0.0019706804
0.0019706477
0.0019706362
0.0019706679
0.0019707591
0.0019734827
0.0019735679
0.0019522615
0.0019499204
0.0019498689
0.0019498545
0.0019498424
0.0019498699
0.0019499085
0.0019522901
0.001952267
0.0019336507
0.0019315568
0.0019315375
0.0019315339
0.001931527
0.0019315419
0.0019315654
0.0019336765
0.0019336473
0.0019173169
0.00191551
0.0019154971
0.0019155121
0.0019155175
0.0019155097
0.001915529
0.0019172982
0.0019172921
0.0019031957
0.0019018807
0.0019019359
0.0019020836
0.0019021438
0.0019020229
0.001901953
0.0019031179
0.001903118
0.0018917117
0.0018914696
0.0018919159
0.0018926714
0.0018929428
0.0018923346
0.0018917797
0.0018916341
0.0018914983
0.0018839731
0.0018861326
0.0018879998
0.0018915418
0.0018924725
0.0018897041
0.0018872445
0.001884242
0.0018834366
0.0018815496
0.0018884787
0.0018943104
0.0019049463
0.00190728
0.0019012597
0.0018920409
0.0018832968
0.001880363
0.0018849687
0.001899266
0.0019075415
0.0020414577
0.0021354588
0.0019378692
0.0019085641
0.0018901873
0.0018827863
0.0018912618
0.0019115719
0.0021606872
0.0043497959
0.0055154725
0.0028265189
0.0019384173
0.0019016385
0.00188811
0.0018946142
0.0019376797
0.0038016645
0.010625309
0.012631208
0.0070712997
0.0022566944
0.0019119268
0.0018911631
0.0018921872
0.0021085967
0.0072435231
0.016379602
0.018797776
0.011894602
0.003395997
0.0019323704
0.0018892132
0.0018865394
0.0025959857
0.010559432
0.020637373
0.02305483
0.016003802
0.0055538735
0.0020115014
0.0018841925
0.0018814281
0.0036286343
0.013635823
0.023721147
0.025982038
0.019243772
0.0080986909
0.0022451226
0.0018789739
0.0018796944
0.0051906004
0.016308105
0.025893901
0.027930336
0.021779527
0.010354475
0.0028222504
0.0018761542
0.0018895574
0.0069569231
0.018566923
0.027371876
0.029203193
0.023668026
0.012310502
0.0039033258
0.001881268
0.0019333192
0.0086023504
0.020367391
0.028351505
0.029997549
0.025027756
0.014207199
0.0054416124
0.0019036042
0.0020458591
0.010128268
0.021743699
0.029008415
0.030510665
0.025977633
0.01594936
0.0071041729
0.0019740013
0.0022862746
0.011640231
0.022789532
0.029456014
0.030833231
0.026684929
0.017460325
0.008717586
0.0021257719
0.0027368244
0.013112674
0.023647772
0.029794117
0.031042693
0.027262179
0.018751693
0.010249825
0.0024207058
0.0034108792
0.014584248
0.024561434
0.030126774
0.031221115
0.02786435
0.01998868
0.011728082
0.0029166165
0.0019973893
0.0019972663
0.0019971623
0.0019971405
0.0019971749
0.0019973264
0.0019736732
0.0019735568
0.0019734884
0.001970871
0.0019735021
0.00197356
0.001952337
0.001952311
0.0019522837
0.0019499218
0.0019522769
0.0019522931
0.001933699
0.0019337236
0.0019336975
0.001931542
0.0019336767
0.0019337078
0.0019173351
0.0019174299
0.0019174067
0.0019154547
0.0019173594
0.0019174053