/*--------------------------------*- C++ -*----------------------------------*\
| =========                 |                                                 |
| \\      /  F ield         | OpenFOAM: The Open Source CFD Toolbox           |
|  \\    /   O peration     | Version:  2406                                  |
|   \\  /    A nd           | Website:  www.openfoam.com                      |
|    \\/     M anipulation  |                                                 |
\*---------------------------------------------------------------------------*/
FoamFile
{
    version     2.0;
    format      ascii;
    arch        "LSB;label=32;scalar=64";
    class       volScalarField;
    location    "225";
    object      omega;
}
// * * * * * * * * * * * * * * * * * * * * * * * * * * * * * * * * * * * * * //

dimensions      [0 0 -1 0 0 0 0];

internalField   nonuniform List<scalar> 
71615
(
9.8512129
9.8563742
8.6192431
8.6177467
7.6294489
7.6275576
6.8465038
6.8449639
6.2128753
6.2117216
5.6922365
5.6914799
5.260772
5.2605403
4.9030779
4.9037513
4.6088452
4.6111584
4.3683171
4.3731377
4.1671956
4.1745485
3.9881114
3.9963068
3.820765
3.8277205
3.6642807
3.6694395
3.5194614
3.5235274
3.3854157
3.3893426
3.2611955
3.2661525
3.1462062
3.1568064
3.046801
3.06187
2.9738327
3.0075874
2.940845
2.9965973
2.9676537
3.0248705
9.8530339
9.8429821
9.8406242
9.8402291
9.8408749
9.8448711
9.8566644
8.6165135
8.4797607
8.4749476
8.4733106
8.4765214
8.6132503
8.6166401
7.6280916
7.5234014
7.5211448
7.5198814
7.5217116
7.6274131
7.6276413
6.8456798
6.7607026
6.7590586
6.7578232
6.7594034
6.8452419
6.8453498
6.2125383
6.1419554
6.1401793
6.1387823
6.1406286
6.2119615
6.21235
5.6924064
5.633031
5.6308364
5.6291834
5.6315206
5.691516
5.6923326
5.2615783
5.2118587
5.2094005
5.2074508
5.2102502
5.2603828
5.2615723
4.9047503
4.8649904
4.8633425
4.8612383
4.8638612
4.9037005
4.9047215
4.6115791
4.5841723
4.5867257
4.5852443
4.5850183
4.6121052
4.6113484
4.3719943
4.3600367
4.3684209
4.366647
4.3634796
4.3764453
4.3712994
4.1712531
4.1712579
4.1862361
4.1866
4.189609
4.1815353
4.1699217
3.9917422
4.0025525
4.122025
4.2017206
4.0312861
4.0061336
3.9899669
3.8232246
3.8553578
4.2110759
4.3937641
4.0062601
3.8395425
3.8214262
3.6655135
3.7936839
4.4106058
4.7404715
4.0709574
3.68641
3.6637976
3.5200977
3.8091274
4.7199653
5.0950897
4.242899
3.5505937
3.518151
3.3860682
3.9107044
5.0000958
5.2827388
4.5000051
3.4650915
3.3837048
3.2633122
4.0921862
5.1365923
5.3092463
4.729154
3.4756779
3.2589459
3.1499078
4.2998874
5.1157022
5.2071124
4.8379275
3.6196481
3.1433627
3.0677778
4.4377509
4.9850833
5.0199789
4.8113936
3.8235631
3.0384752
3.031355
4.4607808
4.7904182
4.8046594
4.6929098
3.9816821
2.9617172
3.0555783
4.3876381
4.5746767
4.5832266
4.5207725
4.0426628
2.9341825
3.14203
4.2588411
4.372347
4.37819
4.3327376
4.0203637
2.9626404
9.8498649
9.8401491
9.8395938
9.8395726
9.8395767
9.8395758
9.8396432
9.8408442
9.8535004
8.6143382
8.4720423
8.4678209
8.4660289
8.4657192
8.4666924
8.4698205
8.4786335
8.6154307
7.6269365
7.5195746
7.516803
7.5145985
7.5141081
7.515532
7.5185663
7.5231061
7.626964
6.8446187
6.7579404
6.7555874
6.7534511
6.7529143
6.7544126
6.7571141
6.7605324
6.8445025
6.2115536
6.1391119
6.1356465
6.1326502
6.1318994
6.1339932
6.1376641
6.1418107
6.2114208
5.6915692
5.6296469
5.6244608
5.6200542
5.618961
5.6220085
5.6272946
5.6329917
5.6914037
5.2610918
5.2080663
5.2018489
5.1965978
5.1953276
5.1989079
5.2051473
5.2121878
5.2606992
4.9050285
4.8620654
4.8586019
4.8573385
4.8570184
4.8578925
4.8604068
4.8661835
4.903936
4.6132271
4.585535
4.5961457
4.5674558
4.5812377
4.6038594
4.5910304
4.586855
4.6106594
4.375559
4.3712098
4.4300426
4.9761834
5.2267142
4.658351
4.3951755
4.3650505
4.3706955
4.1767872
4.1945028
5.0561252
6.8875816
7.2750902
6.1260274
4.3940123
4.1810552
4.1693885
3.9985545
4.1791345
6.4193379
7.6928349
7.8620173
7.2921858
5.029438
4.0154899
3.9894755
3.8302539
4.45139
6.9584491
7.5744565
7.6599288
7.381611
5.9643614
3.8739206
3.8208366
3.672412
5.0156429
6.8936989
7.2735363
7.3351264
7.1431404
6.3696362
3.8435817
3.6629208
3.5272513
5.4895571
6.6600419
6.9236819
6.9657492
6.8319441
6.3253224
3.9343097
3.5171044
3.396388
5.6468648
6.3574834
6.528846
6.5545861
6.4712126
6.1189
4.1444684
3.3826669
3.2824912
5.5466551
6.0160107
6.1177706
6.1314771
6.0846241
5.8608059
4.4282347
3.2583813
3.2231503
5.3421903
5.6624003
5.7177388
5.7236154
5.7008208
5.5702475
4.6574758
3.1455784
3.2699128
5.1155917
5.3195897
5.3437875
5.3442547
5.3381711
5.2706276
4.7370812
3.0480217
3.4351279
4.8810458
4.9985472
5.0013596
4.9980037
5.0038481
4.9743255
4.6706117
3.0034474
3.6236136
4.6502984
4.704285
4.691233
4.6854319
4.6992982
4.6965262
4.517567
3.0248669
3.7383477
4.4210132
4.4354113
4.4120705
4.4050205
4.4235703
4.4404291
4.3403321
3.1239428
9.8530296
9.840148
9.8395593
9.8395434
9.8395346
9.8395332
9.839538
9.8395513
9.8395893
9.8411129
9.8509385
8.6164917
8.4720306
8.4663271
8.4638333
8.4628212
8.46264
8.463204
8.4648102
8.4687169
8.4796506
8.6175313
7.6280554
7.5195752
7.5151186
7.5111377
7.5089373
7.5084901
7.5098247
7.5128937
7.5176098
7.5229841
7.6287377
6.8456335
6.7579402
6.7540603
6.7491957
6.7457078
6.7449433
6.747178
6.751587
6.7563199
6.7602332
6.846027
6.2124827
6.1391052
6.1335638
6.1266148
6.1213191
6.1201007
6.1235919
6.130084
6.1366997
6.1415791
6.2126759
5.69234
5.6296309
5.6214451
5.6113613
5.6037436
5.6019201
5.6069732
5.6164109
5.62604
5.6328889
5.6923424
5.2615009
5.2080412
5.1982765
5.1868321
5.1802217
5.1779383
5.18234
5.1925293
5.2037932
5.2121116
5.2611742
4.9046678
4.8620407
4.8571723
4.8605314
4.825598
4.8414806
4.8565135
4.8572861
4.8598875
4.8657716
4.9036468
4.6115098
4.585545
4.6076031
4.8504485
6.4666291
6.983489
5.5448406
4.6168021
4.5935509
4.585395
4.6091766
4.3719691
4.3712772
4.6579386
7.834789
9.405128
9.6287198
8.8911522
6.0395316
4.3808612
4.3615651
4.3677205
4.1713016
4.1943044
6.486156
8.8832571
9.4867019
9.602526
9.2590697
8.1680927
4.5835661
4.1746755
4.1652322
3.9918647
4.1829516
7.5871859
8.5515295
8.9375345
9.0178954
8.7800109
8.2207626
5.7155884
4.0090558
3.9851991
3.8233955
4.4637385
7.5133948
8.1182185
8.4268276
8.4941564
8.2984135
7.8726739
6.5983594
3.8393964
3.8175662
3.6657055
5.0371025
7.2337441
7.676106
7.885496
7.9270045
7.8004529
7.4974869
6.7192423
3.7512822
3.6610194
3.5202916
5.5063346
6.9013344
7.1869787
7.29414
7.3119987
7.2529577
7.0780395
6.5495435
3.7473029
3.5162485
3.3862665
5.6574147
6.5237692
6.6792267
6.7112896
6.7132699
6.7013276
6.6272599
6.2943449
3.840916
3.3823046
3.2636109
5.5523659
6.1257571
6.1884476
6.173204
6.1658815
6.1824052
6.1757935
5.9815554
4.02403
3.2577349
3.150436
5.3468228
5.7317674
5.7346963
5.6921947
5.679956
5.7121351
5.7467235
5.6442522
4.2598203
3.1417639
3.0697711
5.1195213
5.3590278
5.3251659
5.268395
5.2539086
5.2937331
5.3517704
5.3121071
4.4301788
3.0360906
3.0354675
4.8846822
5.0164648
4.9600072
4.8967735
4.8815353
4.9243624
4.9948089
4.9993689
4.4751537
2.9486219
3.0627817
4.6524909
4.7061531
4.6357432
4.5705731
4.5554134
4.5985961
4.6749214
4.7107139
4.4080897
2.8923298
3.15204
4.4224132
4.4263297
4.3489121
4.2853091
4.2708963
4.3123485
4.3894942
4.44564
4.2782381
2.8945826
9.842982
9.8395937
9.8395433
9.8395261
9.8395178
9.8395161
9.8395204
9.8395323
9.8395554
9.8397089
9.848247
8.4797566
8.4678169
8.4638309
8.4620876
8.4612692
8.4611115
8.4615905
8.4628059
8.465376
8.4707417
8.6149461
7.5233914
7.5167934
7.5111305
7.5071837
7.504875
7.5043952
7.50582
7.5089612
7.5137709
7.5182798
7.6278431
6.7606808
6.7555671
6.7491818
6.7426545
6.7382203
6.7372514
6.7400865
6.745776
6.752597
6.7565226
6.8456178
6.1419152
6.1356086
6.1265885
6.1164231
6.1088348
6.1071387
6.1120887
6.1214539
6.1314898
6.1374957
6.2124566
5.6329689
5.6244009
5.6113178
5.5967657
5.5854812
5.5830101
5.5906225
5.6038618
5.6184204
5.6278061
5.6923428
5.2117791
5.2017723
5.1867785
5.176209
5.1656386
5.1601691
5.1771999
5.1783797
5.1947858
5.2060866
5.2619159
4.8649165
4.8585593
4.8604679
4.8955036
5.6174128
6.0199048
5.1408975
4.8269252
4.8566662
4.8604236
4.9064847
4.5841708
4.5963786
4.8545996
8.3468151
10.193167
10.477335
9.5576455
6.3907009
4.5849282
4.5864045
4.6165031
4.3601965
4.4339524
7.8580729
10.165649
10.997094
11.168787
10.662117
9.3964268
5.3151869
4.3738213
4.3821471
4.1717251
5.0808943
8.8926951
9.9353553
10.647565
10.823889
10.333254
9.477056
7.5964106
4.2152237
4.1865131
4.0025537
6.4535019
8.5560152
9.2676208
9.744311
9.9624875
9.627368
8.9295079
8.0125852
4.3454593
4.0078179
3.8584793
6.9769152
8.120188
8.6964079
9.1755862
9.298684
8.9553852
8.4192302
7.7359083
4.7629712
3.8376727
3.8003249
6.9041365
7.6768056
8.0491454
8.2907261
8.3449963
8.1864028
7.8812408
7.3955851
5.3312236
3.6822762
3.8202827
6.6672714
7.187163
7.3628943
7.4374226
7.4507936
7.407737
7.2935028
7.0098945
5.6625287
3.5419166
3.9273201
6.3616618
6.6792615
6.7175713
6.6972348
6.689432
6.708095
6.712924
6.5858392
5.7175021
3.4331243
4.1141106
6.0183815
6.1884627
6.1435123
6.0748768
6.0571343
6.1056562
6.1760065
6.1542143
5.5794741
3.37337
4.3221505
5.664283
5.7347411
5.6436894
5.5532327
5.5315012
5.5926101
5.6955074
5.7387466
5.363604
3.3951565
4.4556142
5.3212251
5.3252517
5.2111125
5.1131376
5.0904329
5.1551712
5.2716855
5.3528952
5.1265556
3.5114774
4.4731337
4.9999551
4.9601136
4.8362513
4.738213
4.7160128
4.7798755
4.8996568
5.002028
4.8840901
3.6597658
4.3957207
4.7052951
4.6358512
4.5099291
4.4155727
4.3945569
4.4553937
4.57288
4.686325
4.6480804
3.7739571
4.2637259
4.4361431
4.3490114
4.227259
4.1398421
4.1206302
4.1765165
4.2870357
4.4034276
4.4160865
3.8149259
9.851191
9.8406246
9.8395725
9.8395346
9.8395178
9.8395094
9.8395073
9.8395118
9.839523
9.8395453
9.8396148
9.8424939
8.6192038
8.4749444
8.4660253
8.4628173
8.4612667
8.4604766
8.4603195
8.4607925
8.4619248
8.4640864
8.4692993
8.6121033
7.6294121
7.5211331
7.5145849
7.5089234
7.504866
7.5023955
7.5018748
7.5034154
7.5067204
7.5115293
7.5180438
7.6272754
6.8464603
6.7590302
6.7534187
6.7456752
6.7381989
6.7330677
6.7319447
6.7352315
6.7417855
6.7497067
6.7566304
6.8450392
6.2128168
6.1401268
6.1325896
6.1212579
6.1087935
6.0996785
6.0976857
6.1035154
6.1149682
6.1273143
6.1369304
6.2115841
5.6921573
5.6307565
5.6199598
5.6036472
5.5854158
5.5714716
5.5694375
5.5761457
5.5948929
5.6123317
5.6261418
5.6910791
5.2606736
5.2093033
5.1964841
5.1801351
5.1655277
5.1117521
5.1272712
5.1018019
5.1831148
5.187801
5.2036227
5.2603633
4.9029783
4.8632713
4.8572999
4.8263915
5.6247787
8.0884955
8.5892617
7.0292495
4.9579992
4.8618142
4.8589062
4.9052026
4.6087911
4.5868028
4.568449
6.5018816
10.203244
11.386349
11.575341
10.962408
8.7981025
4.825508
4.5892826
4.6168874
4.3683781
4.3686421
4.9977434
9.4299393
11.012436
11.903676
12.058289
11.539492
10.34614
7.45481
4.3813448
4.3863084
4.167405
4.1860277
6.928525
9.4986403
10.538042
11.570036
11.766263
11.374239
10.067121
8.7513595
4.6496319
4.1928322
3.9884177
4.1285333
7.7125245
8.9445762
9.75092
10.69404
11.097282
10.607578
9.369833
8.4856648
5.5377401
4.0196833
3.8211131
4.2247092
7.5840875
8.4307415
9.1795159
9.8948703
10.021018
9.5823858
8.7826331
8.0660249
6.2824554
3.8626199
3.6646458
4.4322884
7.279752
7.8878995
8.2929841
8.5976369
8.6590314
8.4661999
8.0969042
7.6370729
6.5007308
3.749932
3.5198332
4.7470367
6.9276074
7.2956557
7.4387347
7.5080653
7.5199324
7.4797438
7.3793871
7.1609831
6.4017267
3.7148178
3.3857999
5.0241799
6.5315227
6.7122813
6.6980167
6.6512717
6.6380305
6.6727387
6.715202
6.6645601
6.1669492
3.8163072
3.2616249
5.1534946
6.1197258
6.1738728
6.0753515
5.976733
5.9527879
6.0197966
6.1310978
6.1816262
5.883177
4.0202454
3.1467992
5.1269258
5.7192306
5.6926691
5.5535255
5.4354872
5.408022
5.4862149
5.6265023
5.7330044
5.5802703
4.2124924
3.048139
4.9924775
5.3449029
5.2687467
5.11332
4.9915928
4.9639567
5.0433885
5.1921504
5.3271744
5.2723603
4.3213728
2.9768898
4.7954218
5.0022079
4.8970376
4.7383251
4.6202663
4.5939128
4.6701473
4.8171594
4.9647649
4.9728862
4.33174
2.9467533
4.5783604
4.6918959
4.5707691
4.4156378
4.3044709
4.279971
4.3511841
4.491564
4.6424582
4.690734
4.266706
2.9772341
4.3753974
4.412607
4.2854584
4.139881
4.0387194
4.0166621
4.0810218
4.2102791
4.3567931
4.4317282
4.1580936
9.8565123
9.8402293
9.8395766
9.8395331
9.8395161
9.8395073
9.8395052
9.8395099
9.8395211
9.8395433
9.839613
9.8414531
8.6177164
8.4733077
8.4657144
8.4626343
8.4611068
8.460317
8.4601589
8.4606333
8.4617581
8.4638627
8.4687443
8.4811842
7.6275226
7.5198672
7.5140906
7.50847
7.5043777
7.5018649
7.5013339
7.5029036
7.5062531
7.511068
7.5174852
7.5232467
6.8449219
6.7577886
6.7528725
6.744896
6.7372091
6.7319203
6.7307622
6.7341532
6.7409011
6.7490358
6.756149
6.76034
6.2116642
6.1387195
6.1318219
6.1200117
6.1070578
6.0976393
6.0955806
6.1016296
6.1134562
6.1263277
6.1363181
6.1416128
5.6914012
5.6290903
5.618843
5.6017851
5.5828841
5.5693849
5.5675551
5.5744015
5.5924481
5.610897
5.6253257
5.6327379
5.260448
5.2073429
5.1951922
5.1778682
5.1599552
5.1276584
5.1540069
5.1240882
5.1745961
5.1863536
5.2027608
5.211466
4.9036735
4.8611731
4.8569867
4.842349
6.0384704
8.5997699
9.102139
7.6065683
5.0443878
4.8605627
4.8588267
4.8640812
4.6111602
4.5853711
4.5824071
7.0210176
10.492426
11.581011
11.755246
11.179955
9.2200403
4.9664006
4.5914048
4.5820116
4.3732944
4.3669876
5.2527971
9.6540724
11.190604
12.067456
12.181605
11.72086
10.514975
7.8805114
4.4072958
4.3555621
4.1748595
4.1884016
7.3122549
9.619543
10.799573
11.77942
11.657122
11.677276
10.20994
8.9089028
4.8500095
4.1646581
3.9966585
4.2080203
7.8790656
9.0284209
9.9775956
11.110251
10.854275
11.091506
9.6956697
8.5677354
5.91471
3.9979313
3.8280552
4.4060379
7.6694849
8.5028043
9.3104125
10.030626
10.096903
9.7381799
8.8723181
8.1297124
6.5552406
3.8288526
3.6697717
4.7584002
7.3425522
7.9336614
8.35223
8.6642335
8.7176174
8.5307364
8.1438054
7.6818411
6.6642825
3.7178763
3.52388
5.1137356
6.9714928
7.3166398
7.4549798
7.5225435
7.5325292
7.4940285
7.3947336
7.1865254
6.5067922
3.6682897
3.3897239
5.2982926
6.5588795
6.7163992
6.691855
6.6393605
6.6245944
6.662573
6.7120543
6.6752162
6.2421307
3.6852695
3.2666467
5.3206701
6.1346533
6.1679666
6.0585542
5.95348
5.9280736
5.9988563
6.1182846
6.1823904
5.9332588
3.7769024
3.1576539
5.214609
5.726055
5.6813425
5.5323354
5.4083799
5.3796258
5.4613546
5.6091956
5.7278645
5.6121888
3.9353041
3.0634155
5.024968
5.3460113
5.2548274
5.0909143
4.96413
4.9354098
5.0178995
5.1732145
5.3187293
5.2892837
4.0919041
3.0107372
4.8083141
4.9992698
4.8821366
4.7162756
4.5939794
4.5667267
4.6455403
4.7981098
4.9545247
4.9799412
4.1826379
3.0017093
4.5865127
4.686352
4.5557985
4.3946818
4.2799744
4.2547288
4.3281053
4.4731715
4.6313673
4.6922092
4.1831066
3.0319559
4.380536
4.4057134
4.2711468
4.1206813
4.0166367
3.9939739
4.0600991
4.193199
4.3456362
4.4303004
4.1108569
9.8408748
9.8395758
9.8395379
9.8395203
9.8395117
9.8395098
9.8395142
9.8395258
9.8395489
9.8396242
9.8431959
8.476518
8.466687
8.4631976
8.4615848
8.4607881
8.4606311
8.4611027
8.4622566
8.4645518
8.4703273
8.6128304
7.5216965
7.5155126
7.5098018
7.5057975
7.5033983
7.5028951
7.5043831
7.5076101
7.5124083
7.5188329
7.6273186
6.7593666
6.7543664
6.7471233
6.740032
6.7351895
6.7341324
6.7372317
6.7434233
6.7509129
6.7572482
6.8449408
6.1405618
6.133909
6.1234897
6.1119844
6.1034349
6.1015902
6.1070957
6.117685
6.129075
6.1377686
6.2114382
5.6314231
5.6218824
5.606817
5.5904551
5.5760363
5.5743579
5.5827051
5.5985584
5.6149039
5.62739
5.6908553
5.2101404
5.1987679
5.1821867
5.1769059
5.101974
5.1244478
5.1578209
5.1771528
5.190761
5.205175
5.2598569
4.8637964
4.8578934
4.8564527
5.1504465
7.0528146
7.6180094
5.9952677
4.8674095
4.8579273
4.8601876
4.9039296
4.5851124
4.6042072
5.5793204
9.5829243
10.975154
11.185565
10.486454
7.898924
4.6573315
4.5895922
4.6140912
4.3637471
4.6705991
8.9248428
10.684343
11.555144
11.727851
11.185269
10.005107
6.5763404
4.3947686
4.3813943
4.1905031
6.1651398
9.2782622
10.362175
11.403609
11.687368
11.183591
9.8271669
8.3887611
4.3988729
4.1879258
4.0337704
7.3177716
8.7953073
9.6486107
10.644431
11.100674
10.500114
9.1820651
8.3194562
4.9290854
4.0110842
4.0114063
7.3957347
8.3110605
8.9720038
9.5990675
9.7428615
9.3015638
8.626676
7.9410903
5.7097731
3.8513668
4.0791717
7.1522827
7.8102897
8.1964432
8.4743659
8.5340706
8.3482761
8.0085456
7.5461537
6.1285497
3.7072964
4.255296
6.8394154
7.259938
7.413592
7.4838274
7.4958899
7.4530177
7.3473239
7.1058026
6.1891234
3.6205536
4.5157239
6.4769356
6.7060751
6.7115084
6.6748356
6.6635598
6.6911087
6.7179052
6.6382399
6.0255293
3.6268442
4.7447173
6.0888416
6.1855768
6.107654
6.02088
5.9993627
6.0584885
6.1527303
6.1752648
5.779934
3.767487
4.8505989
5.7039101
5.7142162
5.5937664
5.4867533
5.4615944
5.5326022
5.6573969
5.7391455
5.5055677
3.9706763
4.8209061
5.3404405
5.2950694
5.1558135
5.0436209
5.0179882
5.0912962
5.2267777
5.3406108
5.226889
4.1381583
4.6995029
5.0055335
4.9251997
4.780198
4.6702017
4.6455412
4.7166518
4.8525032
4.982318
4.9475515
4.2093335
4.5248789
4.7005341
4.5991063
4.4555161
4.351133
4.3280549
4.3949902
4.5260169
4.6621775
4.6798545
4.187554
4.3355086
4.4244645
4.3126575
4.1765321
4.0809238
4.0600277
4.1209037
4.2425164
4.3771401
4.4294402
4.1047417
9.8448709
9.8396431
9.8395513
9.8395322
9.8395229
9.839521
9.8395257
9.8395389
9.8395635
9.839858
9.8515519
8.613242
8.4698157
8.4648045
8.4628004
8.4619203
8.4617553
8.4622555
8.4635884
8.466638
8.4751583
8.615191
7.6273874
7.5185474
7.5128718
7.5089386
7.5067012
7.5062406
7.5076047
7.5106724
7.5155239
7.5213282
7.6272973
6.8451893
6.7570685
6.751534
6.7457209
6.7417384
6.7408702
6.7434101
6.7485247
6.7544651
6.7592439
6.8450342
6.2118745
6.1375812
6.1299849
6.1213489
6.1148772
6.1133976
6.1176614
6.1256431
6.1341147
6.1404725
6.2120004
5.6913938
5.6271715
5.6162583
5.6036983
5.5947474
5.5923606
5.5985237
5.6099475
5.6222285
5.6313218
5.691971
5.2602362
5.2050048
5.192352
5.1782526
5.1829125
5.1745965
5.1771303
5.1850649
5.1991933
5.2101382
5.2613724
4.9035722
4.8603281
4.857262
4.8279728
4.9621824
5.0482934
4.8677888
4.8563572
4.8576073
4.8642328
4.9051852
4.6120872
4.5912083
4.6192211
6.4375726
8.8280307
9.2353634
7.9048776
4.9705205
4.6054591
4.5866097
4.6134798
4.3766462
4.396291
6.0932171
9.4235076
10.362615
10.523538
10.007094
8.2669211
4.584651
4.3683387
4.3763628
4.1819692
4.4048048
8.201377
9.4964863
10.082774
10.217775
9.8292584
9.024607
6.0811885
4.1982632
4.1783553
4.0066082
5.0617867
8.2382055
8.945448
9.3828108
9.7032812
9.1843767
8.6334102
7.3621297
4.0573016
4.0001676
3.8400828
6.0003568
7.8863447
8.4317402
8.7925785
8.8778283
8.6292181
8.1806775
7.4114354
4.0825723
3.8313744
3.687171
6.3927157
7.5081452
7.8898547
8.103194
8.1478704
8.0107875
7.7202382
7.1659229
4.2375837
3.6731845
3.5515717
6.3364073
7.0858452
7.2989872
7.3830733
7.3974022
7.3490244
7.2123814
6.8524857
4.5264843
3.5279671
3.4686567
6.1261892
6.6327544
6.7163151
6.7173001
6.713701
6.719087
6.6904846
6.4886513
4.8665921
3.3968366
3.4846579
5.8664598
6.1795103
6.1780729
6.1322555
6.1192555
6.1535108
6.1903672
6.1020158
5.0810165
3.281035
3.6341412
5.5754128
5.7491683
5.6967409
5.6271046
5.6097338
5.657886
5.730846
5.7175679
5.1026027
3.2181961
3.8398963
5.2739562
5.3533694
5.272394
5.1924217
5.1734784
5.2270621
5.3179148
5.3523208
4.9837834
3.2362203
3.9956098
4.9769226
4.9958574
4.9000288
4.817228
4.7981994
4.8526498
4.9508051
5.0145431
4.7932389
3.3632719
4.0529979
4.6983194
4.6756085
4.5730354
4.4915058
4.4731509
4.5260751
4.6254618
4.7073849
4.5834173
3.5193906
4.0279689
4.4416874
4.3899354
4.2870662
4.2101576
4.1931217
4.2425247
4.3382908
4.4297255
4.3861069
3.6221344
9.8566821
9.8408439
9.8395893
9.8395554
9.8395452
9.8395433
9.8395489
9.8395636
9.8396504
9.842319
8.6166368
8.4786289
8.4687129
8.4653719
8.4640827
8.4638603
8.4645505
8.466635
8.4708145
8.6125004
7.6276323
7.5230879
7.5175909
7.5137515
7.511512
7.5110558
7.5124015
7.5155175
7.5189672
7.6279619
6.8453217
6.7604898
6.7562729
6.7525489
6.7496639
6.7490052
6.7508968
6.7544593
6.7574031
6.8457652
6.2122928
6.1417339
6.1366125
6.1313987
6.1272328
6.1262703
6.1290455
6.1341045
6.1384584
6.2121595
5.6922422
5.6328782
5.6259063
5.618277
5.6122036
5.6108086
5.61486
5.6222139
5.6288463
5.6912452
5.2614585
5.2120541
5.2036289
5.1946069
5.1876536
5.1862581
5.1907173
5.1991806
5.2072125
5.2595485
4.9046199
4.8660883
4.8597759
4.8565815
4.8617833
4.8605555
4.8579504
4.8576123
4.8615007
4.9023257
4.611329
4.5869208
4.593733
4.5866258
4.8346439
4.9729057
4.6585176
4.6055054
4.5859437
4.6106094
4.3714425
4.3654135
4.3837651
5.3537659
7.495058
7.8997237
6.5827847
4.5849078
4.3737226
4.3755694
4.1702422
4.1816792
4.6043958
7.6391708
8.7700635
8.9178498
8.3923636
6.0798319
4.2033433
4.1823418
3.9903833
4.0153824
5.7737756
8.0328676
8.4970716
8.574208
8.3220284
7.3617316
4.2598124
4.0102755
3.8218634
3.8782787
6.6409003
7.750201
8.0746683
8.1353953
7.944212
7.4109784
4.7142892
3.8470304
3.6642431
3.8539777
6.7414201
7.4057868
7.6432772
7.6865381
7.5495142
7.1654735
5.4017425
3.6998376
3.5186189
3.9528648
6.5663977
7.0169945
7.1652383
7.1901026
7.1086491
6.8528286
5.7837686
3.5766758
3.3842036
4.1713883
6.3061754
6.5906987
6.6673583
6.6777728
6.6404828
6.4889862
5.8130294
3.5264305
3.2595081
4.4603474
5.9890683
6.1574797
6.1834378
6.1841372
6.1769202
6.1021894
5.6422662
3.6025072
3.1440495
4.6848812
5.6494159
5.741012
5.7341867
5.7290423
5.7402791
5.7176482
5.4193111
3.8094152
3.0391801
4.7562471
5.3160115
5.3545102
5.3279372
5.3194917
5.3413411
5.352424
5.1764391
4.0411423
2.9650799
4.681782
5.0025176
5.003169
4.9652358
4.954988
4.9827735
5.0146342
4.9255533
4.191734
2.9406866
4.5243619
4.7130045
4.6871231
4.6427261
4.6316222
4.6624495
4.7074202
4.6731249
4.2226554
2.9732405
4.3447583
4.4472477
4.4039634
4.356929
4.3457597
4.3772931
4.4297148
4.4329749
4.1615272
9.8535001
9.8411134
9.8397088
9.8396149
9.8396129
9.839624
9.8398578
9.8423156
9.8519834
8.6154158
8.4796479
8.4707406
8.4692965
8.4687425
8.4703267
8.4751546
8.6124635
8.615743
7.6269303
7.5229682
7.518265
7.5180292
7.5174744
7.5188269
7.5213223
7.6279461
7.627035
6.8444437
6.7601932
6.7564839
6.7565944
6.756122
6.7572329
6.7592342
6.8457522
6.8445093
6.21133
6.1415048
6.1374226
6.1368636
6.1362684
6.1377407
6.1404578
6.2121467
6.2113479
5.6912771
5.6327754
5.6276922
5.6260386
5.6252508
5.6273496
5.6313033
5.691233
5.6911861
5.2605443
5.2119698
5.2059397
5.2034921
5.2026725
5.2051325
5.2101238
5.2595396
5.2601764
4.903786
4.8656487
4.860297
4.8588098
4.8587781
4.8601726
4.8642386
4.9023279
4.9027711
4.6105857
4.5853984
4.5864992
4.5894425
4.5915337
4.5896323
4.5866575
4.610631
4.6083084
4.3707904
4.3618404
4.3752816
4.3833808
4.4085924
4.3949363
4.3684236
4.3756132
4.3666528
4.1696969
4.1754346
4.219916
4.6667591
4.8598073
4.399751
4.1983593
4.1823968
4.1638336
3.989938
4.0106786
4.3648008
5.5761272
5.9333168
4.9296398
4.0570522
4.0103128
3.9836077
3.8213576
3.8417722
4.8060166
6.3143417
6.5703754
5.7107327
4.0806715
3.8470368
3.8160065
3.6634558
3.7591687
5.3801817
6.5221453
6.6744455
6.1305241
4.2338532
3.6997761
3.6595548
3.5176494
3.7625301
5.6978415
6.415652
6.5134737
6.1897845
4.5216835
3.5764606
3.5146887
3.3832434
3.8654953
5.7407604
6.177399
6.2473692
6.0256085
4.8626135
3.5259083
3.3805768
3.2590507
4.0577389
5.5945666
5.8907746
5.9373591
5.7803353
5.0793469
3.6012962
3.2561047
3.1469583
4.2965224
5.3757799
5.5856236
5.6153985
5.5065084
5.1023188
3.8078089
3.1401344
3.0515337
4.4609152
5.1362433
5.2759985
5.29147
5.2279229
4.9835208
4.039622
3.0359482
3.011202
4.4962623
4.8927267
4.9754435
4.9814789
4.9485589
4.792716
4.1905772
2.9506826
3.0397694
4.4216646
4.6529977
4.6926144
4.6933471
4.6805624
4.5827735
4.2218677
2.8996473
3.1462577
4.2866022
4.4194906
4.4331732
4.4311743
4.429904
4.385448
4.16101
2.9099106
9.851016
9.8482471
9.8424945
9.8414534
9.8431955
9.8515519
8.6176023
8.6149518
8.6121011
8.4811834
8.6128306
8.6152136
7.6288054
7.6278467
7.6272651
7.5232343
7.6273136
7.627336
6.8460724
6.8456082
6.8450111
6.7603123
6.8449262
6.8450801
6.2126855
6.2124223
6.2115298
6.1415649
6.2114109
6.2120461
5.6923082
5.692276
5.6909943
5.6326686
5.6908138
5.6920137
5.2610986
5.2618198
5.2602537
5.2113843
5.2598072
5.2614156
4.9035514
4.9063861
4.9050974
4.8640147
4.9038931
4.9052445
4.6091172
4.6164762
4.6168634
4.582017
4.614107
4.6135795
4.3677842
4.3823104
4.3864622
4.3556935
4.3814931
4.3765156
4.1654847
4.1870063
4.1931638
4.1648799
4.1880779
4.1785332
3.9856198
4.0084167
4.0205498
3.9984179
4.0112748
4.0003222
3.8180818
3.8384931
3.8639816
3.8293239
3.8515644
3.8314929
3.6615774
3.6834594
3.7544536
3.7196858
3.7074842
3.6732959
3.5168282
3.5434257
3.7254219
3.6715955
3.6208028
3.52808
3.3828986
3.4374683
3.8373675
3.6907384
3.6276188
3.39691
3.2583737
3.3822441
4.0459086
3.7851954
3.7694803
3.2809891
3.1425031
3.4133929
4.2373479
3.9453254
3.9740086
3.2176667
3.0374154
3.537672
4.3418075
4.1018476
4.1420786
3.2351775
2.951832
3.6880742
4.3472918
4.1909896
4.2129003
3.3621997
2.8995868
3.7990492
4.278218
4.1895636
4.1903646
3.5189008
2.9085912
3.8342271
4.1666983
4.1157761
4.1069308
3.6222074
9.851016
9.8515519
8.9075341
8.9038879
9.8482472
9.8431956
8.9025919
8.8982162
9.8565129
8.9101835
8.9089444
9.8424941
9.8414534
8.8970993
9.0501578
9.8512148
8.9089807
8.9101818
9.8414529
9.8424944
9.0501526
8.8970983
9.8431957
9.8482472
8.8982168
8.9025917
9.8515519
9.851016
8.9038882
8.9075343
2.8939982
3.6091732
2.9370351
3.6096208
3.8130952
4.0997226
3.7854341
4.028376
3.0242191
3.0199258
3.0698367
4.1567451
4.1069762
4.0658826
4.1406035
2.9703013
3.0706123
3.02314
4.1083153
4.1584557
4.1409122
4.0672053
4.1016546
3.8177588
4.0298455
3.7890397
3.6139463
2.8962246
3.6132547
2.9401496
9.851987
8.9056106
9.8566646
8.9070539
9.853489
9.8423283
8.904882
8.8971702
8.907054
9.8423262
9.8534723
8.8971599
8.9048731
9.851987
8.9056125
2.8829811
2.928178
2.9608391
3.0103683
3.1261569
4.157573
3.2072897
4.0974012
3.012728
4.1585692
3.1245117
4.0980362
3.2055475
2.8814088
2.9258816
9.8534837
8.904851
9.8566821
9.8423251
8.9070508
8.8971382
8.9048647
9.8423252
9.8566822
8.8971356
8.907051
3.1280942
3.2090784
2.966864
4.1617066
3.0181047
4.1001406
3.2045758
4.1573301
2.9611772
4.0971037
3.01084
9.8509385
8.9074649
9.8515517
8.9038698
8.9074652
9.8515518
8.9038697
2.9000739
2.945508
3.6222425
3.6198088
2.9377256
3.6112005
3.6111009
9.8482466
8.9025854
9.8431959
8.8982159
8.9025857
9.8431953
8.898216
10.824218
9.9276495
10.148807
11.374484
11.669013
10.700373
11.116615
10.646728
10.148565
9.926008
11.667575
11.370769
11.116668
10.697873
9.9626321
9.2950908
9.4998985
10.609278
11.085386
10.037424
10.35279
9.743287
9.5004247
9.2935078
11.085525
10.607232
10.354627
10.035504
3.8249397
3.794711
4.1066863
4.0337241
3.7867695
4.1011187
4.0294043
9.842494
8.9101423
8.897098
9.8563841
9.841453
8.9089885
9.0501522
9.8511896
8.8970983
8.9101456
9.8414534
9.8565124
9.0501572
8.9089565
11.767599
10.740722
11.123703
11.775515
11.655464
11.13725
10.879102
11.568167
11.123529
10.737453
11.654713
11.771912
10.878796
11.130212
10.535019
10.698552
9.9302668
11.677462
10.792125
11.123824
10.154681
10.610867
9.2991105
10.038623
9.9754192
11.097835
9.5099996
10.362871
11.097252
10.233161
10.494531
11.109611
10.853908
10.502942
10.521904
10.69112
10.495533
10.23071
10.853611
11.102393
10.520803
10.495299
9.7480676
10.036041
9.2973711
11.090958
9.9698856
10.354099
9.5036948
4.1631681
3.0318709
4.0709164
3.0322321
4.1147118
3.0790728
4.1450676
2.9698715
4.0669135
3.0226661
4.1090436
3.0266859
4.1419673
3.0727427
9.8414533
8.9089564
9.050157
9.8511896
9.8424938
8.9101447
8.8970974
9.8563843
9.0501527
8.9089889
9.8424943
9.8511909
8.8970971
8.9101421
11.098582
9.5112883
10.364143
9.7647213
10.644114
9.3122781
10.060812
10.8546
10.505196
10.524031
10.730053
11.112867
10.255728
10.507024
11.102951
10.52257
10.497732
11.112145
10.703285
10.5034
10.237771
9.9705862
10.357022
9.5047857
10.618562
9.7527761
10.04203
9.2998712
4.1140586
3.0787069
4.1449382
2.9768662
4.1631602
3.0314774
4.0708969
3.0275913
4.1424022
3.0736584
4.1609891
2.9740511
4.0691657
3.0278206
9.8431948
8.898216
9.8482469
8.9025848
8.8982156
9.848247
8.9025845
11.688818
10.736181
11.13441
10.554427
10.803916
9.9487029
10.166196
11.386723
11.133402
10.711156
10.802074
10.54413
10.164514
9.9388894
11.101473
10.060447
10.366702
9.7661656
9.9802649
9.3119075
9.5131219
10.619199
10.362347
10.043333
9.9786207
9.7560542
9.5110118
9.3034263
4.1071577
4.0340515
3.8263883
3.7958918
4.0321728
3.824059
3.7939628
9.851552
8.9038695
9.8509386
8.9074642
8.9038698
9.8509385
8.907464
3.6257681
3.6225896
2.9041805
2.9512573
3.6196034
2.9018135
2.9479231
9.8423259
8.9070508
8.8971593
9.8534733
8.9048839
9.8566823
8.8973005
8.9070527
9.8534915
8.9051764
4.1676784
3.0257389
4.104263
3.1446488
3.2261633
2.9697416
4.0988485
3.0214751
3.1414798
3.2075807
9.8519875
8.9056143
9.8423248
8.9048544
8.8971324
9.8566644
8.9070518
9.853461
8.8972637
8.9051378
9.8566645
8.9070544
8.905665
2.8932023
2.9427118
4.1705077
3.2275238
4.106116
2.977489
3.0310644
3.1406902
4.0984718
3.2067532
2.9688278
3.020246
2.9543512
9.8515519
8.9075332
8.9038861
9.8431961
8.9025909
8.8982146
9.8414528
8.8970976
9.0501511
9.8512148
9.8563742
8.9101804
8.9089794
9.8424939
9.0501573
8.8970977
9.8565129
9.8512128
8.9089437
8.9101826
9.8482471
8.898216
8.9025903
9.851016
8.9038874
8.9075337
3.6343869
2.9575206
3.6292837
4.1111463
3.8020267
4.0370914
4.1176892
4.0736457
4.14663
2.9824263
3.0354528
3.0383835
3.0826724
4.1633858
4.1461733
4.0710849
3.0344224
2.9774797
3.0816422
3.0323768
3.8240748
4.0338976
3.7940924
2.9007978
3.6198916
2.9466637
9.5425906
9.8506084
9.5413213
9.8554206
9.5451094
9.8571624
9.5440044
9.8531742
9.5441105
9.8537479
9.5461031
9.5423551
9.8564541
9.544238
9.8511979
9.5412774
9.8518904
9.5446724
9.5413958
9.8567029
9.5410272
9.8555035
9.5416889
9.8524208
9.844871
8.9060014
8.8995793
9.8411146
9.8398584
9.0462967
9.0406547
9.8530339
8.8995799
8.9060008
9.8398584
9.8411138
9.0406534
9.0462929
9.5450134
9.8520649
9.543539
9.8522345
9.5427519
9.5413168
9.8543801
4.0170314
3.2120526