/*--------------------------------*- C++ -*----------------------------------*\
| =========                 |                                                 |
| \\      /  F ield         | OpenFOAM: The Open Source CFD Toolbox           |
|  \\    /   O peration     | Version:  2406                                  |
|   \\  /    A nd           | Website:  www.openfoam.com                      |
|    \\/     M anipulation  |                                                 |
\*---------------------------------------------------------------------------*/
FoamFile
{
    version     2.0;
    format      ascii;
    arch        "LSB;label=32;scalar=64";
    class       volScalarField;
    location    "225";
    object      p;
}
// * * * * * * * * * * * * * * * * * * * * * * * * * * * * * * * * * * * * * //

dimensions      [0 2 -2 0 0 0 0];

internalField   nonuniform List<scalar> 
71615
(
0.28389366
0.27954831
0.27898505
0.2788635
0.27654495
0.27656134
0.27201939
0.27205357
0.2641164
0.26417474
0.25091738
0.25101311
0.2296145
0.22975925
0.19661076
0.19680038
0.14847382
0.14865012
0.084685545
0.08469486
0.012260218
0.01191795
-0.05253472
-0.053181723
-0.093643321
-0.094253638
-0.10782499
-0.1081661
-0.10273929
-0.10280987
-0.087775758
-0.087711178
-0.069948867
-0.069918538
-0.053023031
-0.052951465
-0.038396142
-0.038307916
-0.026306192
-0.026155316
-0.016345763
-0.016213535
-0.0077906706
-0.0075324321
0.27998414
0.28001092
0.28045317
0.28060507
0.2803285
0.27983155
0.27895541
0.27879719
0.27936449
0.2799926
0.28015801
0.27969218
0.27908819
0.27874824
0.2764119
0.27709377
0.27799019
0.27823075
0.2775597
0.27687025
0.2763309
0.27179786
0.27272205
0.2741149
0.27448879
0.2734526
0.27251497
0.27168724
0.26374195
0.26505509
0.2672298
0.26781894
0.26620368
0.2648726
0.26359068
0.2503122
0.25206626
0.25533817
0.25623204
0.25380064
0.25202443
0.25010937
0.22871134
0.2306626
0.23521225
0.23646443
0.23307772
0.23110823
0.22845987
0.19543162
0.19660987
0.20204459
0.20354561
0.19949603
0.19834863
0.1951753
0.14727937
0.14543004
0.14999098
0.15122988
0.14786078
0.14993932
0.14713612
0.084073567
0.075741481
0.075806283
0.075725178
0.075802766
0.084869059
0.084243634
0.012831276
-0.0038609274
-0.01179591
-0.014495979
-0.0079229917
0.010159535
0.013481903
-0.051010322
-0.071730089
-0.085606482
-0.090130327
-0.078891039
-0.056548339
-0.049970531
-0.092165975
-0.10894756
-0.12121415
-0.12440909
-0.11566558
-0.097798594
-0.091092264
-0.10698663
-0.11611563
-0.12237488
-0.12382207
-0.11960566
-0.11079106
-0.10617625
-0.10243249
-0.10480884
-0.10666824
-0.10655957
-0.10595631
-0.10423359
-0.1019959
-0.08780155
-0.086034696
-0.084915002
-0.084094876
-0.085626069
-0.088206347
-0.087679476
-0.070056281
-0.06633846
-0.064100631
-0.063203011
-0.065232777
-0.069665841
-0.070131435
-0.053087949
-0.048821722
-0.046573006
-0.045865705
-0.047657704
-0.052312901
-0.053250464
-0.038432829
-0.034376977
-0.032469541
-0.032009256
-0.033396334
-0.03757508
-0.038612445
-0.026331492
-0.022766588
-0.021278359
-0.021029822
-0.022018982
-0.02550327
-0.026494897
-0.016367567
-0.013410592
-0.012330654
-0.012181527
-0.012857558
-0.015664876
-0.01651009
-0.007747713
-0.0056195873
-0.0051069304
-0.0050931508
-0.0053717853
-0.0074532666
-0.0078305061
0.27957384
0.28062797
0.28201535
0.28313787
0.28348742
0.28290086
0.28164472
0.28027864
0.27932755
0.27891212
0.2803112
0.28212061
0.28350039
0.28381142
0.28289616
0.28118645
0.27946113
0.27869287
0.27661369
0.27838517
0.28097333
0.28299652
0.28346393
0.28211029
0.2796346
0.27722803
0.276313
0.272097
0.2746732
0.27869238
0.28189391
0.28264585
0.28049186
0.27662033
0.27292712
0.27165206
0.26419274
0.26803476
0.27435221
0.27949216
0.28071765
0.27723977
0.27109723
0.26535829
0.26352414
0.25097375
0.25644135
0.26607115
0.27414095
0.27610184
0.27059362
0.26109315
0.25248421
0.24999274
0.229624
0.23656107
0.25021013
0.26212691
0.26509919
0.25685925
0.24310532
0.23117476
0.2282697
0.19656461
0.20336068
0.22010303
0.23554195
0.23953153
0.22867863
0.21129995
0.19712383
0.19489406
0.14843933
0.15070448
0.16525216
0.17946465
0.18323683
0.1732415
0.15753319
0.14578164
0.14677984
0.084839813
0.075200699
0.074237159
0.068246262
0.066119816
0.071847832
0.075339119
0.075788466
0.083893908
0.012689005
-0.014251172
-0.045942683
-0.082288883
-0.092191343
-0.065417503
-0.027700714
-0.0042584657
0.013270182
-0.052195845
-0.089644158
-0.1363151
-0.18304395
-0.19547697
-0.16212816
-0.11139027
-0.072688963
-0.049987925
-0.093882019
-0.1253357
-0.16088229
-0.19268462
-0.20104923
-0.17924427
-0.14250132
-0.11018939
-0.09100697
-0.10856722
-0.12528406
-0.14313956
-0.15726899
-0.16049159
-0.15165809
-0.13404009
-0.11743675
-0.1061063
-0.10353842
-0.1075009
-0.11233846
-0.11455519
-0.11506478
-0.11402726
-0.10995978
-0.10593814
-0.10194541
-0.088371588
-0.084743974
-0.082671172
-0.079941368
-0.079453209
-0.081215651
-0.083961668
-0.08670706
-0.087653187
-0.070215607
-0.063630161
-0.058774721
-0.054744543
-0.053877822
-0.056471393
-0.061511619
-0.066670281
-0.070120048
-0.053058788
-0.046106561
-0.040727613
-0.036809208
-0.035933883
-0.038462706
-0.043629536
-0.048944242
-0.053209714
-0.0382574
-0.0320689
-0.02718636
-0.023894073
-0.023177631
-0.025284757
-0.02963694
-0.034395568
-0.038543658
-0.026137294
-0.020895753
-0.016958306
-0.014395681
-0.013845512
-0.015471788
-0.018848238
-0.022748142
-0.026433168
-0.016111489
-0.011986028
-0.0091327406
-0.0072305014
-0.0068204453
-0.0080324553
-0.010494591
-0.013372174
-0.016415456
-0.0076300862
-0.0051221819
-0.0034790332
-0.0022398782
-0.0019679242
-0.00276922
-0.0042824256
-0.0057333493
-0.0076375785
0.28001464
0.28065385
0.28278771
0.28522491
0.28708309
0.28765085
0.28670296
0.28460793
0.28215424
0.28021682
0.28220426
0.27883948
0.28033897
0.28316135
0.28623173
0.28843781
0.28892256
0.28748771
0.28470197
0.28160441
0.27929719
0.27883973
0.27646236
0.27841649
0.28245438
0.28697545
0.29029551
0.29103589
0.28886597
0.2847193
0.28022748
0.27699235
0.27638412
0.27185611
0.27471043
0.28097697
0.2882043
0.29366869
0.29490863
0.29130998
0.28458356
0.27752698
0.27256071
0.27176044
0.26381082
0.26808056
0.27794
0.28971271
0.29893238
0.30106953
0.29493033
0.28377789
0.27250106
0.26479163
0.26369579
0.25039381
0.25649888
0.27156616
0.29046107
0.30598507
0.30968244
0.29918533
0.28083352
0.2631992
0.25164735
0.25025968
0.22880563
0.23663348
0.25807623
0.28687681
0.3122066
0.3184694
0.30095833
0.27196251
0.24603503
0.23004163
0.22866471
0.19553412
0.20344851
0.22991878
0.26899759
0.30660718
0.31628741
0.28962472
0.24831476
0.21481123
0.1958119
0.19542739
0.1473782
0.15080116
0.17408379
0.2110666
0.23691505
0.24131222
0.22742758
0.19176302
0.16050771
0.14469591
0.14739022
0.084147016
0.075284592
0.073141893
0.047208651
0.0048327129
-0.0031969214
0.024168799
0.065306965
0.075271458
0.075663912
0.084407623
0.012857276
-0.01421366
-0.066774751
-0.17640981
-0.27035739
-0.29072561
-0.23134846
-0.11598969
-0.034007091
-0.0027563242
0.013464238
-0.051037435
-0.089677927
-0.16781063
-0.28925295
-0.38540173
-0.40639199
-0.34390915
-0.22860396
-0.1209317
-0.069870205
-0.05016547
-0.092237805
-0.12547015
-0.18573878
-0.25504726
-0.30479757
-0.31709709
-0.28396273
-0.22213936
-0.15081821
-0.10735745
-0.091362728
-0.10708864
-0.12549414
-0.1550334
-0.17949252
-0.19627606
-0.2004172
-0.18938463
-0.16808112
-0.1388125
-0.11537443
-0.1064132
-0.10255023
-0.10775413
-0.11456459
-0.11723766
-0.1189633
-0.11949409
-0.11838334
-0.1160792
-0.11171999
-0.10490494
-0.10212011
-0.08791291
-0.08495831
-0.080771419
-0.074868191
-0.071143228
-0.07042521
-0.072761614
-0.077621759
-0.083713646
-0.08644637
-0.087720271
-0.07015026
-0.063785683
-0.055700458
-0.047609767
-0.042594055
-0.041574775
-0.044697637
-0.051360742
-0.060261305
-0.06679442
-0.070130266
-0.05316177
-0.046205097
-0.037684395
-0.029998629
-0.025269221
-0.024295199
-0.027231628
-0.033568801
-0.042146662
-0.049203969
-0.053230423
-0.038490816
-0.032128518
-0.024622155
-0.018197418
-0.014251617
-0.013435236
-0.015882738
-0.021183706
-0.028401859
-0.034705952
-0.038601394
-0.026381198
-0.020929711
-0.01495551
-0.009923388
-0.0067887723
-0.0061425586
-0.0080815162
-0.012273861
-0.017900241
-0.023003395
-0.026507698
-0.016406785
-0.01200723
-0.007655007
-0.0038424808
-0.0014478143
-0.00094872458
-0.0024368021
-0.0056245279
-0.0098293993
-0.01358318
-0.016538989
-0.0077692868
-0.0051252471
-0.0025331682
0.00010271318
0.0018675771
0.0022456586
0.0011301921
-0.0011531212
-0.0039148574
-0.0057349888
-0.0079047304
0.28008159
0.28207056
0.28525601
0.28868042
0.29122593
0.29199697
0.29071138
0.28783189
0.28435242
0.28137567
0.27988801
0.27944157
0.28218006
0.28626542
0.29049465
0.29347911
0.29413142
0.29220109
0.2884092
0.28407161
0.28051984
0.27901856
0.27717907
0.28104078
0.28701493
0.29338783
0.29798968
0.29900959
0.29601684
0.29023713
0.28379836
0.27869744
0.27678523
0.272821
0.27877364
0.28825433
0.2987903
0.30666096
0.3084384
0.30327152
0.293547
0.28312376
0.27517347
0.27237771
0.2651726
0.27445464
0.28978113
0.30769976
0.32174044
0.32499247
0.31563893
0.29868025
0.28142376
0.26883997
0.26465105
0.25220596
0.26620479
0.29056216
0.32109224
0.34663346
0.35276636
0.33537201
0.30546589
0.27710773
0.25769705
0.25169122
0.23082522
0.25038849
0.28703793
0.33775906
0.38406241
0.3956834
0.363269
0.31115861
0.26639542
0.23838753
0.23065893
0.19678608
0.22033749
0.26926649
0.34675422
0.41684274
0.43209238
0.38689562
0.30488003
0.24093526
0.20567164
0.1978495
0.1455929
0.16553266
0.21147506
0.25731567
0.27502595
0.28151939
0.26647769
0.23942263
0.18453388
0.15280066
0.14959756
0.075835875
0.074449615
0.046934134
-0.035471148
-0.03750278
-0.016599313
-0.049183346
0.0048041056
0.067791879
0.075372781
0.085052703
-0.0038868843
-0.046208214
-0.17752475
-0.34287157
-0.38226523
-0.35779103
-0.38177281
-0.26810513
-0.095340262
-0.01804328
0.011167652
-0.071843236
-0.1369635
-0.28980682
-0.4671596
-0.57072031
-0.67235807
-0.54155743
-0.37847998
-0.20231158
-0.095772151
-0.054971195
-0.10911652
-0.16164611
-0.25551517
-0.35677288
-0.46749408
-0.49826737
-0.41067645
-0.30399349
-0.20709311
-0.12939277
-0.09631417
-0.11629375
-0.1437194
-0.17976728
-0.21341328
-0.24456796
-0.25325987
-0.23002476
-0.19625107
-0.16261798
-0.12688512
-0.10974149
-0.10498954
-0.11266536
-0.1173866
-0.12143599
-0.12579178
-0.12710232
-0.12372177
-0.1192079
-0.11537736
-0.10728527
-0.10371325
-0.086221636
-0.082833537
-0.074944362
-0.068314383
-0.064489124
-0.06378233
-0.066028361
-0.071305852
-0.078876752
-0.083921583
-0.088216882
-0.066506353
-0.058855003
-0.047646188
-0.038452496
-0.032892522
-0.031766052
-0.035176173
-0.042660872
-0.053116037
-0.062775027
-0.069975579
-0.048955083
-0.040769501
-0.030014412
-0.0212946
-0.016063025
-0.014996986
-0.018204445
-0.02528979
-0.035238367
-0.045367131
-0.052739304
-0.034481582
-0.027210288
-0.018202266
-0.010915811
-0.0065352461
-0.0056436639
-0.0083255771
-0.014259757
-0.022584162
-0.031431452
-0.037999038
-0.02284631
-0.01697338
-0.0099238578
-0.0041296347
-0.00066028737
4.7621001e-05
-0.002077423
-0.0067906745
-0.013372161
-0.020429414
-0.025898605
-0.013466608
-0.0091432611
-0.0038412295
0.00062339952
0.0033559701
0.0039183857
0.0022360453
-0.0014441176
-0.0064606618
-0.011655776
-0.016028254
-0.0056624139
-0.0034827254
0.00010512183
0.00346888
0.0056761496
0.0061447636
0.0047576503
0.0018746772
-0.0017311705
-0.0049484634
-0.0077738303
0.28395133
0.28055311
0.2832242
0.28714825
0.29126172
0.2942892
0.295204
0.29367977
0.29025094
0.28605472
0.28235106
0.28012316
0.27909319
0.28009857
0.28359294
0.28850833
0.29351822
0.29703282
0.29779984
0.29553021
0.29105615
0.28588927
0.28153788
0.2794105
0.27666277
0.27810799
0.28310212
0.29037909
0.29803764
0.30354981
0.30477045
0.30118801
0.29425941
0.28648846
0.28015672
0.2773118
0.27215458
0.27425154
0.28202216
0.29377662
0.30672658
0.31641031
0.31859856
0.31223622
0.30028473
0.28744747
0.27743942
0.27317554
0.26427255
0.26739175
0.27965579
0.29908397
0.32184065
0.33982068
0.34399982
0.33198285
0.31035969
0.2885117
0.27240136
0.26588311
0.25109461
0.25552961
0.27435712
0.30621526
0.34680365
0.38154165
0.38995365
0.36611406
0.3258992
0.28859109
0.26313237
0.25353387
0.22980593
0.23543177
0.26241795
0.31258419
0.38438482
0.45197804
0.46864191
0.42141551
0.34638152
0.28414417
0.24611358
0.23321563
0.19679376
0.20227161
0.23592108
0.3072587
0.4174271
0.50022717
0.5179671
0.46563354
0.36020612
0.26539508
0.21517982
0.20091616
0.14860367
0.15016918
0.17987295
0.23756584
0.27573411
0.34390574
0.37293894
0.30312743
0.25988957
0.20635231
0.16103107
0.15224418
0.084698067
0.075821937
0.068120051
0.0036931185
-0.033136521
0.20084146
0.30738195
0.050418372
-0.041255256
0.0483176
0.074503527
0.085313202
0.01212197
-0.01204605
-0.083534845
-0.27256318
-0.44473328
-0.14820548
0.39617136
-0.089389092
-0.37432081
-0.16395652
-0.037278922
0.0070918942
-0.052762046
-0.085913873
-0.18383579
-0.38492202
-0.5638347
-0.6042737
-0.77057922
-0.82739514
-0.5038401
-0.27707942
-0.12197158
-0.062304828
-0.093887137
-0.12150999
-0.19344205
-0.30552667
-0.46761606
-0.73477182
-0.82386268
-0.58445486
-0.3714693
-0.2476331
-0.1487359
-0.10309865
-0.10805038
-0.12267232
-0.15766078
-0.19661506
-0.24476548
-0.30826979
-0.32634444
-0.27540793
-0.21820113
-0.17662234
-0.13545302
-0.11405557
-0.10292036
-0.10691644
-0.11473502
-0.1191292
-0.12587979
-0.13576215
-0.13860976
-0.13061264
-0.12185395
-0.11671233
-0.10905988
-0.10586346
-0.087911545
-0.08511252
-0.080018669
-0.071209493
-0.064515968
-0.061428741
-0.060922848
-0.062507169
-0.067416381
-0.075397242
-0.082621903
-0.088364798
-0.07004488
-0.064251048
-0.054773852
-0.042613891
-0.032895901
-0.027205264
-0.026067786
-0.029493719
-0.037319557
-0.048476939
-0.060346675
-0.069058659
-0.053089266
-0.046687276
-0.036816714
-0.025269156
-0.016057228
-0.010598496
-0.0094875059
-0.012822044
-0.020263763
-0.030860991
-0.042615718
-0.051543701
-0.03843662
-0.032556526
-0.023892478
-0.014243797
-0.0065273959
-0.0019643622
-0.0010381503
-0.0038211947
-0.010062263
-0.01893266
-0.028846116
-0.036865788
-0.026333354
-0.021345568
-0.014390475
-0.0067786361
-0.00065249329
0.0029776872
0.0037152408
0.0014985549
-0.0034597444
-0.010505222
-0.018288501
-0.024855002
-0.016363585
-0.012383833
-0.007224059
-0.0014375015
0.003363099
0.0062616244
0.0068549276
0.0050761191
0.0011457637
-0.004297276
-0.010096146
-0.015111678
-0.0077868032
-0.0051586785
-0.0022347212
0.0018761488
0.0056814873
0.0081533734
0.0086767284
0.0071269078
0.0038806416
-0.00022672829
-0.0040205868
-0.0070993174
0.2796264
0.28073032
0.28360315
0.28774925
0.2920691
0.29524208
0.29620012
0.29460292
0.29100801
0.28659716
0.28267451
0.28022848
0.27899659
0.28029066
0.28393487
0.28902857
0.29420991
0.29784147
0.29863346
0.29628805
0.2916632
0.28631506
0.2818008
0.27923275
0.27670516
0.2783776
0.28360459
0.29116139
0.2991059
0.30482269
0.30608793
0.30237146
0.29518493
0.28712159
0.28054523
0.27690099
0.27221575
0.27465814
0.2828158
0.29507026
0.30857023
0.31867283
0.32095493
0.31431361
0.30184967
0.28847213
0.27804267
0.27242238
0.26435943
0.2680174
0.28093222
0.30129452
0.32519285
0.34411894
0.34851811
0.33585552
0.31312126
0.29020968
0.27335131
0.2645909
0.25121809
0.25646151
0.27637849
0.31001577
0.35310094
0.39016716
0.39913225
0.37366942
0.33086425
0.29139135
0.26459475
0.2513912
0.22997221
0.23671537
0.26545091
0.31898247
0.39628267
0.46903474
0.48652487
0.43625911
0.3552617
0.28859586
0.2482303
0.22978178
0.19698571
0.20377608
0.23992806
0.31703733
0.43297357
0.51843049
0.53737256
0.48228711
0.37368379
0.27176653
0.21786972
0.1956588
0.14874472
0.15133876
0.1834709
0.24166506
0.28253887
0.37365962
0.40985706
0.31951658
0.26309087
0.21130457
0.16352721
0.14476179
0.084616594
0.075541351
0.065467084
-0.0053303269
-0.014862171
0.30810859
0.42739569
0.11214403
-0.042980004
0.042250108
0.074307809
0.0759196
0.011642136
-0.01504285
-0.093631358
-0.29424083
-0.40657931
0.39423355
0.99831774
0.36495063
-0.38658641
-0.18156786
-0.042654055
-0.0024017976
-0.053539601
-0.090624593
-0.1958042
-0.39954596
-0.64986618
-0.76960046
-0.42817845
-0.80887025
-0.59134376
-0.29486305
-0.12909295
-0.069113338
-0.094578566
-0.12470706
-0.20131216
-0.31767495
-0.49860636
-0.82602091
-0.90007285
-0.64569432
-0.38907348
-0.25723694
-0.15418939
-0.10593559
-0.10842334
-0.12402133
-0.16053127
-0.20034132
-0.25333658
-0.32672357
-0.34376042
-0.28912326
-0.22405239
-0.17993931
-0.13828626
-0.11401253
-0.10297944
-0.10660997
-0.11502698
-0.11941278
-0.12705113
-0.13864423
-0.14163895
-0.13272554
-0.12267982
-0.1171187
-0.1100862
-0.10392257
-0.087813336
-0.084076049
-0.079389964
-0.070340371
-0.063716181
-0.060901564
-0.060438898
-0.061894488
-0.066681857
-0.074742854
-0.082757782
-0.085762755
-0.069972818
-0.063159835
-0.053810353
-0.041502488
-0.031709854
-0.026042644
-0.024911385
-0.028345822
-0.036238948
-0.047531225
-0.059688959
-0.066818194
-0.05297546
-0.04581433
-0.03587591
-0.024237353
-0.014953667
-0.0094669797
-0.0083550617
-0.011717816
-0.019239354
-0.029944205
-0.041801706
-0.049556684
-0.038316123
-0.031962828
-0.023129686
-0.013390448
-0.0056109788
-0.0010224886
-9.3538214e-05
-0.0029014407
-0.0092000395
-0.01816954
-0.028194344
-0.035046078
-0.026159524
-0.020989536
-0.013807148
-0.0061082986
7.228797e-05
0.0037271502
0.0044675355
0.0022306859
-0.0027771838
-0.0099042006
-0.017796753
-0.023323997
-0.016217517
-0.012142036
-0.0067904778
-0.00092288087
0.0039373204
0.0068642966
0.0074617796
0.0056624733
0.0016828888
-0.0038423226
-0.0097316418
-0.013854158
-0.0075387827
-0.0050599564
-0.0019481946
0.0022646456
0.0061606169
0.0086851677
0.0092188755
0.0076328895
0.0043101522
9.8826165e-05
-0.0038058173
-0.0057528595
0.28047508
0.28304136
0.28682991
0.2908157
0.29375307
0.29463987
0.29315883
0.28983099
0.28576679
0.28219622
0.28003139
0.27984646
0.28304504
0.2876233
0.29231347
0.29560939
0.29632771
0.29419613
0.29000079
0.28517197
0.2811421
0.27933844
0.27772958
0.28227826
0.28902437
0.29615252
0.30128559
0.30242036
0.29908082
0.2926268
0.28540253
0.27956781
0.27719624
0.27364645
0.28069159
0.29150966
0.30345262
0.3123712
0.31438136
0.30851933
0.29750106
0.28566628
0.27650222
0.27298213
0.26642678
0.27748528
0.29519887
0.31590399
0.33219104
0.33596002
0.32508127
0.30545044
0.28554399
0.27090179
0.26556147
0.2540515
0.27089737
0.29956343
0.33579259
0.36647016
0.37384749
0.35283798
0.31715141
0.28370996
0.26081162
0.25302374
0.23333861
0.2572205
0.30149745
0.36397351
0.42206886
0.43657751
0.39568835
0.33098292
0.27647882
0.2427766
0.2324653
0.19971387
0.22904268
0.29033441
0.38796219
0.46645151
0.48266094
0.4335788
0.33595792
0.25466715
0.21103838
0.19994059
0.1479289
0.1734091
0.22781443
0.26706027
0.303958
0.31997707
0.28158387
0.25336712
0.19745498
0.15746686
0.15124164
0.075574983
0.071278575
0.022958598
-0.048480199
0.054018877
0.11149201
-0.019626353
-0.025979999
0.058375553
0.075276885
0.084783652
-0.008481496
-0.066534789
-0.23370296
-0.38746971
-0.078221676
0.37114769
-0.03655295
-0.3274842
-0.13358264
-0.027995958
0.0076364878
-0.079504663
-0.16254724
-0.34462257
-0.53804725
-0.8390215
-0.82545942
-0.82065008
-0.44405708
-0.24547651
-0.11026829
-0.060840964
-0.11612878
-0.17935456
-0.28414774
-0.41183453
-0.58720986
-0.6460284
-0.49878928
-0.34207614
-0.23135239
-0.1405171
-0.10166741
-0.11984906
-0.15161187
-0.18926741
-0.23021414
-0.2760283
-0.28933633
-0.25300185
-0.20881873
-0.17114055
-0.13202482
-0.11303174
-0.10599856
-0.11391706
-0.11823356
-0.12368268
-0.13072819
-0.13273573
-0.12718358
-0.12083205
-0.11641969
-0.10853404
-0.10532338
-0.085514799
-0.081096576
-0.07262895
-0.065952809
-0.06250497
-0.06187271
-0.063844064
-0.06909306
-0.076957966
-0.083266774
-0.088312732
-0.065068264
-0.056376044
-0.044595137
-0.035108134
-0.029468409
-0.028323226
-0.031791786
-0.039549909
-0.050452326
-0.061447833
-0.069125664
-0.047504082
-0.038383592
-0.027154676
-0.018150905
-0.012795842
-0.01169935
-0.015006217
-0.022336405
-0.032700311
-0.043905826
-0.051559708
-0.033268049
-0.025219285
-0.01582504
-0.008284636
-0.0037989558
-0.00288741
-0.0056426309
-0.011787057
-0.020460103
-0.030055813
-0.036831522
-0.021918534
-0.015420852
-0.0080384549
-0.0020460744
0.0015166925
0.0022413627
5.2012724e-05
-0.0048222292
-0.011703031
-0.019236771
-0.02483497
-0.012785706
-0.0079978983
-0.002405375
0.0022602586
0.0050912833
0.0056710112
0.0039243531
8.4410285e-05
-0.0051988555
-0.01079298
-0.015042934
-0.0053335156
-0.0027520745
0.0011522063
0.0047778502
0.0071402934
0.0076411322
0.0061528385
0.0030493149
-0.00085971299
-0.0044621849
-0.0069509057
0.27998944
0.28180332
0.28475604
0.28796089
0.2903524
0.29107593
0.28986356
0.28715672
0.28390408
0.28115523
0.27967929
0.27925382
0.28135324
0.28485852
0.28854625
0.29116405
0.29173505
0.29003494
0.28671224
0.28295086
0.27996305
0.27897771
0.27705133
0.27982034
0.2848984
0.29039807
0.29438809
0.29527044
0.29266664
0.28765893
0.28213261
0.27789641
0.27666095
0.27271901
0.27683663
0.28480196
0.29375253
0.3004537
0.30196163
0.29755158
0.28927065
0.28045394
0.27391153
0.27215371
0.26510418
0.27135472
0.28405728
0.29896229
0.3106012
0.31327982
0.30551795
0.29142958
0.27708876
0.26684163
0.26426709
0.25228052
0.26139812
0.28120167
0.30587769
0.32627295
0.33110455
0.31724423
0.29322529
0.27023091
0.25466077
0.25107215
0.23137021
0.24344881
0.27244575
0.31178444
0.34699513
0.35563527
0.33110231
0.29117259
0.2561379
0.23414357
0.2297421
0.19856982
0.21163158
0.24890125
0.30582885
0.36118675
0.37419861
0.33606438
0.27508927
0.22748863
0.20060716
0.19665351
0.15003456
0.15771514
0.19226892
0.24015513
0.26032703
0.26324256
0.2533533
0.2171655
0.17192608
0.14864477
0.14835602
0.084730714
0.075111033
0.064937729
0.0039258772
-0.041108717
-0.044099202
-0.026205941
0.041362142
0.073639418
0.07574514
0.084343867
0.0097460178
-0.028507751
-0.11745739
-0.27014114
-0.37632423
-0.38654745
-0.32785515
-0.19448646
-0.061041587
-0.0092825466
0.011702931
-0.057101096
-0.11212864
-0.22994738
-0.38057241
-0.50720376
-0.59163563
-0.44332754
-0.30527164
-0.15914627
-0.081388727
-0.053191474
-0.098299966
-0.14283389
-0.22284478
-0.30514872
-0.37278768
-0.38948064
-0.34199733
-0.2640088
-0.1791365
-0.11819497
-0.09423175
-0.11113442
-0.13406835
-0.16832453
-0.19672627
-0.21880162
-0.22415067
-0.20864601
-0.18273832
-0.15237811
-0.12165501
-0.10822008
-0.10437064
-0.10987147
-0.11612341
-0.11936104
-0.12206285
-0.12266915
-0.12072484
-0.11775326
-0.11434035
-0.10694396
-0.10293964
-0.088188807
-0.08387704
-0.077596654
-0.071335202
-0.067475692
-0.066644978
-0.069023837
-0.074260928
-0.081358525
-0.08586737
-0.087939226
-0.069534509
-0.061440027
-0.051316278
-0.042646669
-0.037325066
-0.036201794
-0.039506108
-0.046691227
-0.056548005
-0.065154209
-0.070017637
-0.052118825
-0.043559868
-0.033521368
-0.025262927
-0.020251405
-0.019208408
-0.022307988
-0.029108711
-0.038530552
-0.04747526
-0.052971325
-0.037349549
-0.029572198
-0.021140669
-0.014231568
-0.01004504
-0.0091759387
-0.011767978
-0.017445646
-0.025330784
-0.033191204
-0.03827959
-0.025264902
-0.018797212
-0.012238421
-0.006765043
-0.0034426097
-0.0027584506
-0.0048093045
-0.0093235334
-0.015498626
-0.021820042
-0.026137375
-0.01543279
-0.01046061
-0.0055979108
-0.0014220771
0.0011620858
0.0016977671
9.3351635e-05
-0.0033814377
-0.0080508397
-0.012689817
-0.01615195
-0.0072386904
-0.0042707142
-0.0011349435
0.0018936124
0.003895826
0.0043233149
0.0030561185
0.00044298952
-0.0027766077
-0.0054376067
-0.0076873512
0.27912008
0.28044875
0.28231544
0.28449744
0.28617567
0.28668793
0.28582484
0.28393096
0.28173947
0.2800642
0.2789239
0.27963792
0.28177305
0.28422355
0.28601579
0.28640954
0.28523202
0.2829785
0.28054826
0.2793261
0.27652142
0.2774229
0.28041627
0.2839714
0.28663392
0.28722977
0.28547012
0.28216319
0.27868492
0.27713592
0.27190092
0.27315003
0.27774932
0.28333391
0.28762721
0.28860502
0.28574708
0.28048922
0.27509388
0.27285103
0.26383254
0.26561685
0.27277105
0.28169149
0.28874667
0.29038087
0.28564279
0.27712938
0.26864237
0.2653088
0.25037603
0.25277979
0.26353083
0.27746161
0.28891344
0.29161939
0.28383046
0.27027555
0.25730203
0.25256773
0.22873319
0.23149437
0.24643353
0.26686841
0.28459753
0.28889539
0.27661078
0.25617866
0.23770082
0.23170487
0.19541199
0.19742548
0.21525387
0.24155063
0.26602978
0.2721212
0.25476056
0.2275028
0.2046695
0.19881855
0.14726073
0.14597641
0.16089501
0.18522946
0.20705867
0.21150198
0.19734851
0.17186106
0.15177848
0.14990723
0.084163745
0.075744198
0.075354769
0.06789607
0.048040269
0.041886241
0.058113465
0.073426789
0.075264352
0.083816888
0.013156268
-0.0046196299
-0.03453088
-0.096742322
-0.16556122
-0.18232894
-0.13361836
-0.061140722
-0.016007652
0.0077806399
-0.050459926
-0.073262058
-0.12184997
-0.20422166
-0.27879146
-0.29556172
-0.24538081
-0.15897554
-0.092767828
-0.059764171
-0.091590324
-0.11075297
-0.15170371
-0.20841396
-0.24876997
-0.25760214
-0.23117588
-0.17890751
-0.1281209
-0.10072115
-0.10656855
-0.11787895
-0.13942027
-0.16325105
-0.17719661
-0.18005591
-0.17097626
-0.15223481
-0.12695438
-0.11282144
-0.10223533
-0.10616263
-0.11206056
-0.11567158
-0.11697108
-0.11713263
-0.11629273
-0.11424225
-0.10817393
-0.10532561
-0.087787699
-0.086797519
-0.08384767
-0.078999143
-0.075503598
-0.074718175
-0.076864403
-0.081299049
-0.084810249
-0.088525992
-0.07014925
-0.066680058
-0.06030302
-0.053160024
-0.048515393
-0.047495484
-0.050385842
-0.056510343
-0.063475797
-0.069295804
-0.053216895
-0.048910436
-0.042150852
-0.035247858
-0.030870057
-0.029910039
-0.032651795
-0.038501987
-0.045825198
-0.051367956
-0.038558332
-0.034353088
-0.028390184
-0.022580559
-0.018929198
-0.018140476
-0.020423939
-0.025308787
-0.031743401
-0.036311341
-0.026437853
-0.022708116
-0.017883355
-0.013362634
-0.010496473
-0.0098804935
-0.011676776
-0.015484698
-0.020537446
-0.024195081
-0.016455761
-0.013337948
-0.009815083
-0.0064503815
-0.0042862557
-0.0038231939
-0.0051810148
-0.0080433482
-0.011737521
-0.014442182
-0.0077902332
-0.0057130755
-0.0039039743
-0.0017213719
-0.00021538809
0.00011341412
-0.00084958784
-0.002773395
-0.0050083514
-0.0062394434
0.2794905
0.28038353
0.28152895
0.28248336
0.28278014
0.28227239
0.28120275
0.28008478
0.27929648
0.27887084
0.27947041
0.28067856
0.28167447
0.28190925
0.28121988
0.28001124
0.27934875
0.27878002
0.27650774
0.27718346
0.27887401
0.28030912
0.28066567
0.2796533
0.27794865
0.27716021
0.27640494
0.27187198
0.27278005
0.27537913
0.27761828
0.27818297
0.27659957
0.27396932
0.27287753
0.27174224
0.26377587
0.2650483
0.26908638
0.27261789
0.2735185
0.27101325
0.26690504
0.26533704
0.26360584
0.25027641
0.25194613
0.25799528
0.26339866
0.26479418
0.26093566
0.25472593
0.25259694
0.2500577
0.22857269
0.23037638
0.23874205
0.24643667
0.24845766
0.24289969
0.23419923
0.2317304
0.22831201
0.19518208
0.19615549
0.20606928
0.21555208
0.21809848
0.2111251
0.20063076
0.1988293
0.19492174
0.14698668
0.14497985
0.15318136
0.16139916
0.16367713
0.15744479
0.14859868
0.14988977
0.14683049
0.083928021
0.07577381
0.075594834
0.074687817
0.074203603
0.075048311
0.075591192
0.083758222
0.084037955
0.013068508
-0.0029207717
-0.018201126
-0.037617951
-0.04304926
-0.028387023
-0.0095335229
0.0076827555
0.013572625
-0.05038738
-0.070274615
-0.096350269
-0.12273848
-0.12952625
-0.11050841
-0.081645187
-0.059872698
-0.049559314
-0.091476098
-0.1078401
-0.13010695
-0.14957136
-0.15448299
-0.14047959
-0.11835126
-0.1008089
-0.090624488
-0.10652605
-0.11581762
-0.12757374
-0.13610918
-0.13843701
-0.13181369
-0.12167997
-0.11287338
-0.10588784
-0.10225332
-0.10525984
-0.10784872
-0.10946287
-0.11015061
-0.10832958
-0.10680326
-0.10533515
-0.10191183
-0.08784593
-0.086712601
-0.08434002
-0.082850165
-0.082770932
-0.083099581
-0.085655149
-0.0885172
-0.0877024
-0.07022321
-0.066994173
-0.06304867
-0.060465376
-0.059668974
-0.06133298
-0.064939907
-0.069281441
-0.070166443
-0.053256425
-0.049344384
-0.045532034
-0.042660755
-0.041774558
-0.043824678
-0.047282311
-0.05135756
-0.053292534
-0.038567856
-0.034806735
-0.031528735
-0.028861974
-0.028166384
-0.029993749
-0.033037932
-0.036313228
-0.038681044
-0.026441941
-0.023070957
-0.020486569
-0.01829321
-0.01777098
-0.019191347
-0.021708818
-0.024214342
-0.026598626
-0.016415003
-0.013624706
-0.011697266
-0.0100964
-0.0097078969
-0.010762635
-0.012615307
-0.014478486
-0.016577203
-0.0076282914
-0.0057585797
-0.0049761921
-0.00401871
-0.0037892555
-0.004453389
-0.0053915226
-0.0062917523
-0.0079255778
0.28244676
0.28004719
0.28026015
0.28034114
0.28011853
0.27975743
0.27901804
0.27918001
0.27955231
0.27934882
0.27942919
0.27904596
0.2765714
0.27695997
0.27746665
0.27702776
0.27729406
0.27672942
0.27197258
0.27257654
0.27335173
0.2725654
0.27309098
0.27222847
0.26394114
0.26488211
0.26608788
0.2647542
0.26568316
0.26434824
0.25054106
0.25195921
0.25377149
0.25157348
0.25315539
0.25115575
0.22897595
0.2309608
0.23348322
0.22997327
0.23259517
0.22981661
0.19574311
0.19816509
0.20119561
0.19583306
0.20004196
0.19669734
0.14765508
0.14987804
0.1524899
0.14486802
0.15126907
0.14833717
0.084534821
0.085211668
0.085441328
0.075889581
0.084686379
0.084232932
0.013375412
0.011111356
0.0070019165
-0.0026039185
0.0074048911
0.011503692
-0.050468111
-0.055257693
-0.062610201
-0.069429749
-0.061136442
-0.053422855
-0.091777815
-0.096721578
-0.10349222
-0.10626044
-0.10192701
-0.094423285
-0.10682591
-0.11014614
-0.11442958
-0.11428544
-0.11320714
-0.10833115
-0.10246718
-0.10405476
-0.10614765
-0.10409385
-0.10540482
-0.10296004
-0.087978061
-0.088472081
-0.088554692
-0.085863338
-0.08831846
-0.087899413
-0.070306925
-0.07014695
-0.069186172
-0.066871609
-0.069097118
-0.069940912
-0.053348115
-0.052856803
-0.05163432
-0.049579195
-0.051519842
-0.052871523
-0.038679082
-0.038083843
-0.03693105
-0.035054494
-0.036798967
-0.038167727
-0.026558303
-0.025966499
-0.024903621
-0.023328507
-0.024814859
-0.026019564
-0.016560964
-0.016068932
-0.015138611
-0.013852207
-0.015042335
-0.016040127
-0.0078986406
-0.0077943383
-0.0071206805
-0.0057348683