/*--------------------------------*- C++ -*----------------------------------*\
| =========                 |                                                 |
| \\      /  F ield         | OpenFOAM: The Open Source CFD Toolbox           |
|  \\    /   O peration     | Version:  2406                                  |
|   \\  /    A nd           | Website:  www.openfoam.com                      |
|    \\/     M anipulation  |                                                 |
\*---------------------------------------------------------------------------*/
FoamFile
{
    version     2.0;
    format      ascii;
    arch        "LSB;label=32;scalar=64";
    class       surfaceScalarField;
    location    "225";
    object      phi;
}
// * * * * * * * * * * * * * * * * * * * * * * * * * * * * * * * * * * * * * //

dimensions      [0 3 -1 0 0 0 0];

oriented        oriented;

internalField   nonuniform List<scalar> 
214131
(
-3.3137093e-06
0.0009902801
-0.00013501758
-5.7676571e-06
1.2149444e-05
0.0020781488
0.00011835808
-0.0012121944
5.0547084e-07
-3.0723208e-06
0.0012147615
-0.0023841576
-2.0382895e-07
3.5859541e-07
-8.727963e-06
0.0023927314
-0.0012169046
-5.931187e-08
0.0012176959
-7.3183205e-07
-0.0023990118
-2.5792858e-08
5.8027128e-08
0.0024019842
-3.0041022e-06
-0.001221361
-2.0382068e-07
0.00122307
-1.5049959e-06
-0.0024088509
-1.9665081e-08
1.2045332e-07
0.0024134697
-4.7189841e-06
-0.0012299767
-4.3761319e-07
0.0012329825
-2.5680784e-06
-0.00242627
-2.606265e-08
2.2760994e-07
0.0024334728
-7.4038272e-06
-0.0012446395
-7.9079169e-07
0.0012495673
-4.1367473e-06
-0.002455407
-4.1940383e-08
4.0284669e-07
0.0024664894
-1.144314e-05
-0.0012681927
-1.3263148e-06
0.0012758815
-6.3623169e-06
-0.0025019708
-3.318341e-08
6.4186328e-07
0.0025186358
-1.7273488e-05
-0.001304095
-2.0656076e-06
0.0013153825
-9.221963e-06
-0.002572816
-1.2371366e-08
9.6762668e-07
0.0025967961
-2.4936231e-05
-0.0013551494
-2.938876e-06
0.0013703438
-1.2255606e-05
-0.0026736266
2.7544297e-08
1.339463e-06
0.0027055996
-3.3340778e-05
-0.0014207341
-3.6799516e-06
0.001438693
-1.4279123e-05
-0.002803412
9.4104469e-08
1.6130908e-06
0.0028410907
-3.9388095e-05
-0.0014930979
-3.8487314e-06
0.0015105454
-1.3598957e-05
-0.0029469352
1.7763013e-07
1.5694389e-06
0.0029835829
-3.8396031e-05
-0.0015569657
-3.224201e-06
0.0015697438
-9.5541136e-06
-0.003073631
2.5018594e-07
1.1002822e-06
0.0031006876
-2.8408646e-05
-0.0015981926
-2.1296529e-06
0.0016043626
-4.0405654e-06
-0.0031550462
2.9060671e-07
3.9851316e-07
0.0031685837
-1.4227526e-05
-0.0016139643
-1.1013005e-06
0.0016146606
4.0489449e-07
-0.0031858396
2.9662332e-07
-2.1134036e-07
0.003188393
-2.6389301e-06
-0.0016111545
-3.5904767e-07
0.0016085805
2.9328905e-06
-0.003179973
2.7910821e-07
-5.9102398e-07
0.003175996
4.2887948e-06
-0.0015983182
3.594492e-08
0.0015943908
3.8913271e-06
-0.0031545084
2.4875303e-07
-7.4162571e-07
0.0031479013
7.1003062e-06
-0.0015820718
2.9985081e-07
0.0015779796
3.792282e-06
-0.0031225558
2.2157823e-07
-8.066482e-07
0.0031156076
7.5334844e-06
-0.0015661734
4.8602367e-07
0.0015624652
3.2221278e-06
-0.0030909934
2.2556626e-07
-8.2207459e-07
0.0030847189
6.8713686e-06
-0.0015520743
5.4170666e-07
0.0015488714
2.6611182e-06
-0.0030626642
2.2443432e-07
-7.6718446e-07
0.0030572772
5.9298943e-06
-0.0015399222
4.2538251e-07
0.0015371243
2.3725095e-06
-0.0030376182
3.1596934e-07
-6.9764741e-07
0.0030328852
5.1149451e-06
-0.0015290276
1.9252834e-07
0.0015263231
2.5118631e-06
-0.0030143987
5.3298351e-07
-7.4906915e-07
0.0030093613
5.2537878e-06
-0.0015136634
-7.5193749e-07
0.001498321
1.6094457e-05
1.4091577e-06
-0.002977756
-1.9358022e-06
0.0029450931
3.3189614e-05
-9.6001087e-06
-9.6701886e-05
2.5622858e-05
0.0033562809
1.4192943e-05
-2.1148615e-05
-1.6166955e-05
1.4353681e-05
0.0029642421
3.9963353e-05
-3.0195153e-05
-9.9107397e-06
7.1472665e-06
0.0028587533
2.7327024e-05
-1.4634862e-05
4.9494242e-08
-2.1253782e-06
0.00279425
1.4078763e-05
-3.6929854e-05
9.944993e-06
-1.1802642e-05
0.002884963
3.3422984e-05
-1.5545978e-05
1.6168689e-05
-1.6041708e-05
0.0030169799
3.6964793e-05
9.6699522e-05
9.2215496e-05
0.002281408
6.2244946e-05
-0.0033901993
1.0558196e-07
1.7456835e-07
5.6607708e-07
1.4120956e-06
0.0033879432
-7.0807542e-06
-0.011452121
-9.8356728e-06
4.1633529e-05
0.011341391
0.00013314958
-1.7537403e-05
-1.7257386e-06
2.1436253e-06
-2.8311567e-05
-2.9160468e-06
1.2207928e-06
-2.1971238e-05
-0.011288495
-3.6878446e-05
2.1536518e-05
0.011240538
8.6484517e-05
-1.5150107e-05
5.0958299e-06
8.8506213e-06
1.0100112e-05
-0.01110829
-2.3346121e-07
-2.1198878e-05
0.011068187
5.1447073e-05
-2.4637648e-05
-0.011430143
-4.1504337e-05
0.011352705
0.00012395749
3.6687742e-05
-2.233308e-05
3.1429107e-06
2.1345925e-06
-0.0028506519
-5.249991e-06
9.8127677e-06
-6.4939626e-06
2.2736561e-05
0.0028298486
-0.0024320581
-1.984028e-07
9.0703519e-07
-8.8353987e-07
0.0024322338
7.1908199e-07
-0.0033877336
4.9791936e-07
-9.4389666e-07
0.0033893107
-1.8478843e-06
2.9721852e-06
2.513092e-07
-0.011288836
9.0487732e-07
0.011272705
-3.7397928e-06
-9.8570796e-08
5.2593872e-06
7.6433277e-06
3.0287619e-06
-8.5800577e-06
8.5000845e-06
-4.2105714e-07
-2.2152553e-06
-0.011201761
2.137626e-06
0.011188703
-9.6872268e-06
-1.7275254e-06
1.1750984e-05
1.3232068e-05
2.3549664e-05
-0.011047043
-1.3634164e-07
-1.8799895e-06
0.011041222
-1.5699562e-05
-9.8545924e-07
-0.011302847
-7.0177644e-07
0.011286486
-3.7126445e-06
1.9873245e-06
1.4737381e-07
1.0408454e-05
9.2292174e-06
1.971591e-06
-0.0028184828
-2.9271652e-07
8.5152545e-07
0.0028155102
4.4434916e-07
-0.0024340827
-5.4551282e-07
2.7212374e-07
0.0024357133
-1.3563038e-06
1.5747612e-06
-0.0033993111
1.2591694e-06
-2.5596784e-06
0.0034040338
-4.9946203e-06
9.0890942e-06
4.0585833e-06
-0.011278032
-1.7995334e-05
0.011299271
-6.3285736e-05
7.8314638e-06
1.0752209e-05
1.2832525e-05
6.1714015e-06
-2.3285894e-06
1.1644543e-05
1.0215606e-05
1.3386864e-05
-0.011192471
-6.7486386e-06
0.011209882
-8.3186032e-05
9.0701361e-06
1.9152939e-05
2.0710528e-05
6.305082e-05
-0.011047626
-1.3952208e-07
7.0352739e-06
0.011065526
-8.7832928e-05
8.7367036e-06
-0.011290299
1.8276543e-05
0.011309303
-7.4203097e-05
-1.367503e-05
9.5073815e-06
1.6851892e-05
1.5512551e-05
6.2991554e-06
-0.0028228732
-4.1198899e-06
3.8574855e-06
0.0028241348
-7.2963721e-06
-0.0024435588
-1.3331855e-06
7.1889148e-07
0.0024471506
-2.9767592e-06
2.6838899e-06
-0.003423664
2.2855114e-06
-4.5814517e-06
0.0034321786
-8.9006536e-06
1.6499207e-05
8.115193e-06
-0.011335034
-3.6104048e-05
0.011386141
-0.00012328932
1.6230389e-05
1.8234704e-05
2.0597636e-05
1.016658e-05
2.5995017e-06
1.5853869e-05
2.2276553e-05
2.7688762e-05
-0.011240499
-1.4444947e-05
0.011285451
-0.00016487599
2.1592799e-05
3.0459249e-05
3.2364784e-05
0.00011595249
-0.011095409
-1.7575575e-07
1.4807038e-05
0.011138825
-0.00017398415
1.9300327e-05
-0.011342357
3.647245e-05
0.011390371
-0.0001469274
-2.805917e-05
1.9618533e-05
2.6633481e-05
2.4958671e-05
1.1404644e-05
-0.0028406711
-8.1990542e-06
7.1626442e-06
0.0028455079
-1.5203499e-05
-0.0024615844
-2.390706e-06
1.3173323e-06
0.0024677976
-5.1393943e-06
4.2881389e-06
-0.0034651721
3.8214468e-06
-7.5447301e-06
0.0034791755
-1.4567426e-05
2.7255506e-05
1.3829446e-05
-0.011454825
-6.0771906e-05
0.011544361
-0.00020647539
2.791251e-05
2.9301479e-05
3.2406624e-05
1.599574e-05
8.7803693e-06
2.2240415e-05
3.9173188e-05
4.6989493e-05
-0.011347094
-2.4724645e-05
0.011428849
-0.00028005744
3.8973081e-05
4.7687647e-05
5.0217016e-05
0.00019261807
-0.01119825
-2.0660506e-07
2.514756e-05
0.01127723
-0.00029652126
3.3999539e-05
-0.011455615
6.1221545e-05
0.011541429
-0.00024823322
-4.7428635e-05
3.3757419e-05
4.1552947e-05
3.9328126e-05
1.8788344e-05
-0.0028731738
-1.3935493e-05
1.1861601e-05
0.0028827255
-2.6265024e-05
-0.0024917742
-3.9641258e-06
2.2085466e-06
0.0025018545
-8.3244154e-06
6.5373193e-06
-0.0035315542
6.0289726e-06
-1.1771167e-05
0.0035533437
-2.2583424e-05
4.25909e-05
2.1873098e-05
-0.011658841
-9.5604368e-05
0.011802946
-0.00032469643
4.4432702e-05
4.498032e-05
4.9336136e-05
2.4159429e-05
1.7340232e-05
3.1493641e-05
6.3194659e-05
7.4359773e-05
-0.011535151
-3.9358229e-05
0.011671336
-0.00044661088
6.3627554e-05
7.2543635e-05
7.6073039e-05
0.00030249622
-0.011380243
-1.7831364e-07
3.9743238e-05
0.011512818
-0.00047461371
5.483343e-05
-0.011652124
9.6107656e-05
0.011792735
-0.00039356053
-7.4805094e-05
5.3802009e-05
6.3063184e-05
5.996171e-05
2.9308108e-05
-0.0029263891
-2.2001561e-05
1.8493912e-05
0.0029425591
-4.1969665e-05
-0.0025397741
-6.2163967e-06
3.4882384e-06
0.002555357
-1.2855683e-05
9.4063535e-06
-0.0036321063
8.8736173e-06
-1.7220819e-05
0.0036639276
-3.2880879e-05
6.2490288e-05
3.214217e-05
-0.011981539
-0.00014082417
0.012199005
-0.00047963862
6.5940363e-05
6.4923009e-05
7.1116019e-05
3.4325267e-05
2.8523164e-05
4.3559868e-05
9.4752241e-05
0.00011021241
-0.011843399
-5.864572e-05
0.012057433
-0.00067100778
9.6099921e-05
0.00010479427
0.00010979551
0.00044694485
-0.011681167
-4.9466315e-08
5.8831201e-05
0.011891869
-0.00071638712
8.2158187e-05
-0.011968744
0.00014134863
0.012185456
-0.000587132
-0.00011055737
7.9989194e-05
9.0957452e-05
8.6552565e-05
4.2957661e-05
-0.0030084987
-3.2293485e-05
2.6985557e-05
0.0030333569
-6.2507495e-05
-0.0026122311
-9.118236e-06
5.1532243e-06
0.002634884
-1.8689921e-05
1.2439993e-05
-0.0037740108
1.185652e-05
-2.2996992e-05
0.0038165353
-4.3826222e-05
8.3893086e-05
4.2830231e-05
-0.012458217
-0.00018909579
0.012759005
-0.00064877349
8.9350118e-05
8.5460064e-05
9.3962149e-05
4.4332094e-05
4.0821669e-05
5.6438037e-05
0.00012940761
0.00014888242
-0.012318591
-7.9624754e-05
0.012628827
-0.0009255918
0.00013201412
0.00013889668
0.00014579598
0.0006047545
-0.012150596
2.6133537e-07
7.9303053e-05
0.012459879
-0.00099358353
0.00011217947
-0.012446972
0.00018959916
0.012754261
-0.00080356621
-0.00014897364
0.00010851067
0.000120531
0.00011443717
5.7739705e-05
-0.003126895
-4.3012845e-05
3.5898393e-05
0.0031613144
-8.504704e-05
-0.0027141614
-1.2174687e-05
6.9481646e-06
0.0027443149
-2.4930213e-05
1.4523596e-05
-0.0039548334
1.3756139e-05
-2.6853756e-05
0.004004715
-5.1311394e-05
9.8538891e-05
4.9398997e-05
-0.013095954
-0.00021979
0.013456464
-0.00076451137
0.00010590323
9.7738983e-05
0.00010838376
4.9297383e-05
4.9679147e-05
6.4837388e-05
0.0001536434
0.00017342951
-0.012984418
-9.3103259e-05
0.01337478
-0.0011107666
0.00015768325
0.0001599976
0.00016874393
0.00071173229
-0.012816847
7.9122552e-07
9.1941323e-05
0.013213714
-0.001201346
0.00013357547
-0.013102775
0.00022023284
0.013479772
-0.00095705433
-0.00017308569
0.0001283574
0.00013935917
0.00013159923
6.8281876e-05
-0.003281486
-4.9626318e-05
4.1626889e-05
0.00332274
-0.00010154131
-0.0028436338
-1.4164844e-05
8.2206109e-06
0.0028788942
-2.9320799e-05
1.4055677e-05
-0.0041532138
1.2965742e-05
-2.5763337e-05
0.0042015365
-4.9585508e-05
9.440233e-05
4.5656932e-05
-0.013820524
-0.00020572588
0.014163945
-0.00072550928
0.0001025666
9.0189191e-05
0.00010163168
4.3431968e-05
4.822542e-05
6.1680985e-05
0.00014666177
0.00016228713
-0.013781607
-8.7415415e-05
0.014174313
-0.001070516
0.00015162984
0.00014756795
0.00015704832
0.00067194166
-0.013631231
1.0011392e-06
8.6026028e-05
0.014036654
-0.0011644256
0.00012893906
-0.013866141
0.00020636282
0.014235714
-0.00091783402
-0.00016200927
0.00012291909
0.00013024911
0.00012176556
6.6856958e-05
-0.0034545257
-4.5942283e-05
3.9260341e-05
0.0034941901
-9.984523e-05
-0.0029853157
-1.3466296e-05
8.0851589e-06
0.0030194454
-2.8752666e-05
1.0305e-05
-0.0043287433
8.9926203e-06
-1.8669154e-05
0.0043643609
-3.6250715e-05
6.7154194e-05
3.0123811e-05
-0.014463155
-0.00014503093
0.014700803
-0.00050422769
7.4300395e-05
6.0987876e-05
7.1194268e-05
2.6934732e-05
3.4405205e-05
4.6479567e-05
0.00010164989
0.00011583292
-0.014521776
-6.3887665e-05
0.014791642
-0.00073749498
0.00010651967
9.9450382e-05
0.00010803117
0.00046496681
-0.014393645
1.982312e-06
6.1060449e-05
0.014662412
-0.00079681304
9.1726344e-05
-0.014560203
0.00014603019
0.014818896
-0.00064005201
-0.0001152954
8.6235249e-05
9.0214922e-05
8.2412613e-05
5.0221533e-05
-0.0036074251
-3.0475775e-05
2.7202125e-05
0.0036348353
-7.4363587e-05
-0.0031106388
-9.5502962e-06
6.2289856e-06
0.0031359375
-2.1980332e-05
4.7547222e-06
-0.0044437748
3.6565498e-06
-8.7322538e-06
0.0044612652
-1.7172181e-05
2.9942121e-05
1.0209988e-05
-0.014870067
-6.6754267e-05
0.01497102
-0.00021839344
3.4913476e-05
2.4885425e-05
3.2668433e-05
8.2130313e-06
1.554314e-05
2.7798206e-05
4.2076919e-05
5.6676545e-05
-0.014962189
-3.6153642e-05
0.015035341
-0.00027155399
4.5814588e-05
4.1723748e-05
4.8240459e-05
0.0002026226
-0.014820816
5.6949714e-06
2.7027459e-05
0.014875215
-0.00028977053
4.088678e-05
-0.014996189
6.6638238e-05
0.015090159
-0.00026057023
-5.2529783e-05
3.6782068e-05
4.0522857e-05
3.4276072e-05
2.6037629e-05
-0.0037042594
-1.0568321e-05
1.0966508e-05
0.0037151872
-3.7366969e-05
-0.0031931394
-4.2182033e-06
3.5556741e-06
0.003205799
-1.1998209e-05
-1.6471438e-07
-0.0044895651
-6.0823368e-07
-3.2951213e-07
0.0044916818
-1.0158333e-06
-3.533461e-07
-5.1914422e-06
-0.015010606
-8.8451859e-06
0.014999115
1.679577e-05
2.3423618e-06
-2.7401301e-06
2.5030435e-06
-5.0488311e-06
-5.7403145e-07
1.2591691e-05
-3.8253946e-06
1.3644088e-05
-0.01502532
-1.6833258e-05
0.014946032
8.5214294e-05
-1.9744664e-06
-4.582112e-07
3.507682e-06
-3.2931779e-06
-0.014840827
1.1802163e-05
-3.3065011e-06
0.014733613
0.00010199745
5.0228182e-07
-0.015109774
4.9629746e-06
0.01506821
3.7553667e-05
-1.6667324e-06
-1.9567558e-06
3.310612e-06
-1.1542298e-06
5.2504754e-06
-0.0037395348
4.9859633e-06
-2.1838411e-06
0.0037374542
-5.9732223e-06
-0.0032264987
8.5125408e-08
1.2521928e-06
0.0032283262
-3.164545e-06
-3.237206e-06
-0.0044833551
-2.8613546e-06
4.6291052e-06
0.0044761464
8.6772607e-06
-1.7513569e-05
-1.2499145e-05
-0.014946521
2.5095363e-05
0.014862759
0.00015622294
-1.6940215e-05
-1.7559642e-05
-1.4625819e-05
-1.0618785e-05
-1.0880105e-05
3.0759358e-06
-3.058104e-05
-1.1884906e-05
-0.014812042
-7.5034623e-06
0.014639966
0.00030106575
-3.0926181e-05
-2.4782202e-05
-2.3317383e-05
-0.00012786618
-0.014572609
1.9074593e-05
-2.633691e-05
0.014376657
0.0003310743
-2.336025e-05
-0.014977305
-3.5601478e-05
0.014847863
0.0002164705
3.4927132e-05
-2.3933176e-05
-1.8281394e-05
-2.0783395e-05
-7.5911004e-06
-0.0037310949
1.2700066e-05
-9.2341138e-06
0.0037216724
1.3547388e-05
-0.003222691
2.3998485e-06
-2.1154239e-07
0.0032178916
2.6118124e-06
-4.4839973e-06
-0.0044487083
-3.4493509e-06
6.4360599e-06
0.0044375503
1.2655019e-05
-2.439182e-05
-1.3732538e-05
-0.0147554
3.8128408e-05
0.014630216
0.00022592935
-2.5664024e-05
-2.3165432e-05
-2.2107769e-05
-1.101568e-05
-1.6624122e-05
-2.1743175e-06
-4.2187861e-05
-2.0380336e-05
-0.014445027
-5.7237301e-06
0.014240345
0.00038793846
-4.4290536e-05
-3.5235747e-05
-3.5441229e-05
-0.00018059218
-0.014162277
2.6381489e-05
-4.2348178e-05
0.01394357
0.00041526339
-3.4514794e-05
-0.014691709
-5.7647626e-05
0.014519058
0.00029926727
5.6016995e-05
-3.3403826e-05
-2.8110595e-05
-2.8955923e-05
-1.3403031e-05
-0.0036993541
1.4725943e-05
-1.1204027e-05
0.0036866033
2.2632393e-05
-0.0031983258
3.0631375e-06
-9.3137864e-07
0.0031906298
5.565094e-06
-4.582393e-06
-0.0044038787
-3.1361218e-06
6.3180195e-06
0.0043920944
1.3184996e-05
-2.5726713e-05
-1.1923321e-05
-0.014493142
3.8149729e-05
0.014349393
0.00025182408
-2.8343962e-05
-2.4024938e-05
-2.4197147e-05
-8.9582727e-06
-1.8986108e-05
-4.0648185e-06
-4.5584535e-05
-1.9681851e-05
-0.014035694
-7.5761626e-06
0.013837569
0.00039608253
-4.8508403e-05
-3.7845143e-05
-3.8762623e-05
-0.00019922568
-0.013730154
3.2920801e-05
-5.351819e-05
0.013527951
0.00042202569
-3.7435235e-05
-0.014339222
-6.8184236e-05
0.014159443
0.0003136794
6.78664e-05
-3.5252296e-05
-3.0456153e-05
-3.043749e-05
-1.4731723e-05
-0.0036569831
1.4167934e-05
-1.0414489e-05
0.003642699
2.5262826e-05
-0.0031664133
2.8246301e-06
-1.2040321e-06
0.0031582194
6.5739609e-06
-4.1319774e-06
-0.0043593716
-2.5354919e-06
5.2830015e-06
0.0043485971
1.2159474e-05
-2.4591699e-05
-9.2337567e-06
-0.0142037
3.2600587e-05
0.014060017
0.0002477985
-2.8043835e-05
-2.294164e-05
-2.354662e-05
-6.3769932e-06
-1.8649749e-05
-3.3311439e-06
-4.5308999e-05
-1.4564541e-05
-0.013650621
-1.1915191e-05
0.013477792
0.00036948881
-4.8770958e-05
-3.7473214e-05
-3.8626399e-05
-0.00019712988
-0.01334028
3.8362842e-05
-6.0322492e-05
0.013168874
0.00039049579
-3.6643592e-05
-0.013984751
-7.3275274e-05
0.013818694
0.00029359452
7.4272503e-05
-3.4000653e-05
-2.9244393e-05
-2.8643669e-05
-1.4001463e-05
-0.0036093727
1.3095715e-05
-8.9346535e-06
0.0035943021
2.4911612e-05
-0.0031346498
2.3183031e-06
-1.2475437e-06
0.0031271713
6.4077458e-06
-3.5397258e-06
-0.0043194192
-2.0283922e-06
4.0894486e-06
0.0043099408
1.0957653e-05
-2.2881869e-05
-6.8743579e-06
-0.013921482
2.4274784e-05
0.013790964
0.00022802639
-2.6822866e-05
-2.1125525e-05
-2.1782362e-05
-4.1618274e-06
-1.7037892e-05
-1.0953898e-06
-4.4468986e-05
-7.2506076e-06
-0.01332068
-1.6990318e-05
0.013180381
0.0003290287
-4.7845256e-05
-3.5709978e-05
-3.6464447e-05
-0.00018339236
-0.013014554
4.2700791e-05
-6.4302789e-05
0.012877617
0.00034193245
-3.5230282e-05
-0.013664325
-7.4935777e-05
0.013523846
0.00025927964
7.6879409e-05
-3.2148105e-05
-2.7051738e-05
-2.6313016e-05
-1.2943748e-05
-0.0035589531
1.2599012e-05
-8.0392696e-06
0.0035435073
2.3830246e-05
-0.003106425
1.9555561e-06
-1.2419013e-06
0.0031000038
5.7071578e-06
-3.0414456e-06
-0.0042844407
-1.5597842e-06
3.0043139e-06
0.0042760692
9.968603e-06
-2.1308589e-05
-4.9326885e-06
-0.013672009
1.2158066e-05
0.013569436
0.00019536672
-2.595109e-05
-1.9386555e-05
-1.9124894e-05
-2.0025534e-06
-1.5112077e-05
2.8670624e-06
-4.3011757e-05
3.3886231e-06
-0.013057984
-2.3938691e-05
0.012955234
0.00027614758
-4.618874e-05
-3.1758511e-05
-3.1887892e-05
-0.00016315609
-0.012758088
4.6107059e-05
-6.4589182e-05
0.012656282
0.00028344428
-3.3920559e-05
-0.013399319
-7.1756e-05
0.013294096
0.00021325638
7.4493044e-05
-3.0726733e-05
-2.3369358e-05
-2.2752666e-05
-1.1930368e-05
-0.003508751
1.2554684e-05
-7.9425997e-06
0.0034939126
2.2157201e-05
-0.0030823825
1.7828246e-06
-1.1983495e-06
0.0030769162
4.8816035e-06
-2.7366092e-06
-0.0042538265
-9.6474206e-07
1.764608e-06
0.0042466799
9.0832676e-06
-1.9352007e-05
-2.1962871e-06
-0.01349149
-1.4648309e-05
0.013456152
0.00012003564
-2.5275611e-05
-1.5669351e-05
-1.1836516e-05
2.5875674e-06
-1.175655e-05
1.3451649e-05
-4.1245063e-05
2.767604e-05
-0.0128761
-3.988152e-05
0.012830222
0.00019048897
-4.4701427e-05
-2.2578088e-05
-2.3879818e-05
-0.00014366783
-0.01257345
4.8752406e-05
-5.4520139e-05
0.012513138
0.00020974944
-3.2110944e-05
-0.01321483
-5.288317e-05
0.013176392
0.00012199864
5.717219e-05
-2.8800118e-05
-1.3709288e-05
-1.3227048e-05
-9.950476e-06
-0.0034653327
1.1682751e-05
-7.3907929e-06
0.0034536299
1.7361796e-05
-0.0030618861
1.7471953e-06
-1.1658259e-06
0.0030572522
4.0523048e-06
-6.4701838e-06
-2.93415e-06
-0.0042302434
4.1075787e-06
0.0042215139
1.4026262e-05
-1.0814002e-05
1.2933704e-05
-7.3404581e-05
-6.2226194e-05
-1.6129248e-05
1.8089467e-06
2.5596837e-05
-0.013487386
0.00346108
0.0034119683
0.0033653456
0.0032925251
2.3846344e-05
8.6654756e-06
4.6191782e-05
-2.5524831e-05
8.5822469e-05
-6.7561771e-05
9.6977206e-05
0.0032699306
0.0032174208
0.003103256
0.0031372652
-0.012797107
-4.0488799e-05
1.9303093e-05
7.0967999e-07
-0.00014510193
5.0953138e-05
-3.1622212e-05
0.00014762933
0.0031511953
0.0031724859
0.0030730057
0.0030601973
-0.01247874
-6.8770833e-06
4.922321e-06
-1.4617137e-06
-1.421394e-05
-0.013169533
0.0033314273
0.0033624891
0.0032270182
0.0031851254
-7.3468385e-06
4.4855786e-05
4.3596473e-05
-6.2115665e-06
-0.0034612596
-1.5020412e-06
1.4932101e-06
0.0034848884
-1.7407999e-05
4.6496181e-06
-0.0030443475
-5.7790808e-06
0.0030331395
1.2337412e-05
-2.0985451e-05
-2.3089035e-05
1.7474713e-05
0.0030864139
1.6357184e-05
-3.6190578e-05
-2.7283595e-05
0.0028567404
2.1699028e-05
2.8908651e-05
-1.9021872e-05
-9.0186247e-06
0.0027799802
5.9867871e-06
1.0656766e-05
-6.7716037e-06
-2.0282376e-06
1.2167785e-06
0.002762014
3.3728625e-06
-3.4398354e-06
3.225872e-09
-3.4767457e-07
0.0027587178
1.6849766e-06
-8.7905539e-06
2.0287577e-06
-2.7650133e-06
0.0027637575
4.4688477e-06
-2.3880937e-05
9.0157783e-06
-1.212995e-05
0.0027902112
1.4108734e-05
-3.4886237e-05
2.7257749e-05
-2.9323046e-05
0.0028995942
3.3528953e-05
-2.2683326e-05
2.3462166e-05
-3.0859626e-06
0.0031992194
2.772736e-05
-0.0028943287
-1.3536785e-06
-1.4685e-06
6.9251405e-06
6.9625998e-06
0.0028832652
-0.00012021053
-0.011354674
-9.4786957e-05
9.7841011e-05
0.011340162
0.00013168127
-0.011220977
-0.00013644491
-7.938732e-05
5.7098532e-05
0.01127572
0.00010400616
-0.011116359
-8.1613913e-05
-3.6556356e-05
1.7735607e-05
0.011158028
5.8780681e-05
-0.011089428
-6.0372427e-05
-7.2409569e-08
-1.7590053e-05
0.011122053
4.5423815e-05
-0.011159281
-0.00011111756
3.6419938e-05
-5.6952426e-05
0.011210557
8.0388522e-05
-0.00014807983
-0.011289216
7.9212631e-05
-9.749425e-05
0.011332085
0.0001235083
-0.011517612
-3.0902775e-05
0.011414031
0.00011665872
9.3605599e-05
-1.2002351e-05
-2.5905722e-06
-3.3929372e-06
-1.4896482e-05
-4.2432959e-05
-3.1981388e-06
2.744431e-06
-0.0032355825
1.3078327e-07
1.7765516e-06
2.6518922e-07
2.0522075e-06
0.0032313599
1.5404994e-06
1.4433018e-06
-0.0028754407
-1.4683848e-06
0.0028754793
-1.5519212e-06
-1.6037373e-06
-4.8684392e-06
-0.011296967
1.4122733e-05
0.01127044
1.8890037e-05
-1.5964724e-05
-0.011304087
-1.8244998e-05
1.617974e-05
0.011297305
2.4828181e-05
-3.7141819e-06
-0.011185537
-1.1201302e-05
6.2812258e-06
0.011199268
-5.0806972e-06
5.9805297e-06
-0.011144407
-1.350558e-07
-6.0108461e-06
0.01115904
-1.4451791e-05
-1.338498e-05
-0.011244256
1.0949632e-05
-1.594815e-05
0.01125226
1.0395949e-05
-1.1057469e-05
-0.011330186
1.8054401e-05
-1.4020529e-05
0.011309046
2.8180532e-05
-1.5084052e-06
-0.01134705
0.011319088
4.6074207e-06
3.9752869e-06
2.4342697e-06
4.6201125e-06
5.172047e-06
1.0539363e-06
5.907156e-06
1.2266405e-05
-1.0553317e-05
7.3826575e-07
-0.003230716
-1.2239204e-06
5.4687266e-07
0.0032315362
-8.7937054e-07
3.931394e-06
3.7863231e-06
-0.0028824398
-5.5317359e-06
0.0028859546
-5.6986662e-06
5.3473369e-05
4.1024017e-05
-0.011265582
-4.2846023e-05
0.011277764
-6.3816615e-05
7.9823963e-05
-0.011291376
4.058391e-05
-3.3936382e-05
0.011295923
-9.0999842e-05
0.00010198346
-0.011197319
2.4432738e-05
-1.2580703e-05
0.011198883
-0.0001153826
0.00010772933
-0.011159942
-1.8198045e-07
1.2945969e-05
0.011161326
-0.0001218591
9.1878853e-05
-0.011248374
-2.4781073e-05
3.4272946e-05
0.011251099
-0.00010407685
6.7248086e-05
-0.011303115
-4.0868532e-05
4.3043567e-05
0.011311017
-7.7304356e-05
9.63453e-06
-0.011319024
0.011334614
-5.0105568e-05
-4.19589e-05
9.4421342e-06
1.0162994e-05
1.1036782e-05
7.5075598e-06
1.1249377e-05
1.7442141e-05
1.2627131e-08
1.4846819e-06
-0.0032417323
-3.5965333e-06
1.2668931e-06
0.0032456235
-3.0439387e-06
6.8790889e-06
6.6722833e-06
-0.0029020006
-1.0139049e-05
0.0029089746
-1.0383724e-05
0.00010626402
8.4178638e-05
-0.011304624
-9.4296677e-05
0.011346998
-0.00013850031
0.00017015839
-0.011311042
9.4134132e-05
-8.2428756e-05
0.011337837
-0.00020863482
0.00021707408
-0.011205973
6.116366e-05
-3.2442669e-05
0.01122042
-0.00026022182
0.00022776932
-0.01116673
-2.3693572e-07
3.2921754e-05
0.011178301
-0.00027200402
0.00019692964
-0.011261611
-6.1630976e-05
8.2891347e-05
0.011281467
-0.0002380228
0.00013981527
-0.011331846
-9.454638e-05
9.4609585e-05
0.011366541
-0.00017454814
1.9064926e-05
-0.011368983
0.011416852
-0.0001015552
-8.5198198e-05
1.7083768e-05
1.8127547e-05
1.8604845e-05
1.4431322e-05
1.8104234e-05
2.4786766e-05
8.6946794e-06
2.4639467e-06
-0.0032652072
-6.5049798e-06
2.216522e-06
0.0032727121
-5.6785574e-06
1.1141687e-05
1.0858952e-05
-0.002936522
-1.6711861e-05
0.0029482832
-1.70474e-05
0.00017793621
0.00014208647
-0.011406347
-0.00016232677
0.01148646
-0.00023778753
0.00029288535
-0.011378584
0.00016493091
-0.00014676214
0.011437078
-0.00036951961
0.00037942518
-0.011244858
0.00011022789
-5.9025972e-05
0.011283244
-0.00046898789
0.00039939923
-0.011198714
-2.7963989e-07
5.9598135e-05
0.011231987
-0.00049196391
0.00034215247
-0.011313095
-0.00011080132
0.00014734464
0.011360458
-0.00042602986
0.00023763372
-0.011416938
-0.00016546831
0.0001627655
0.011486873
-0.00030483511
3.1138689e-05
-0.011485687
0.011572952
-0.0001706542
-0.0001432217
2.7825356e-05
3.0200364e-05
2.9629129e-05
2.4136337e-05
2.8084532e-05
3.5942083e-05
1.9669481e-05
3.8963634e-06
-0.0033051894
-1.0715781e-05
3.6195049e-06
0.0033178781
-9.4874876e-06
1.7140755e-05
1.6768768e-05
-0.0029922649
-2.5988905e-05
0.0030107777
-2.6432267e-05
0.00027877111
0.00022335226
-0.011591341
-0.00025872441
0.011727039
-0.0003790752
0.00047000244
-0.011518772
0.00026669037
-0.00024067339
0.011631205
-0.00060841816
0.00062050869
-0.011341568
0.00018288348
-9.8772869e-05
0.011428554
-0.0007915697
0.00065618272
-0.01128411
-2.5941873e-07
9.9341632e-05
0.011364084
-0.00083519811
0.00055506157
-0.01142929
-0.00018351846
0.00024138396
0.011527872
-0.00071146905
0.00037673114
-0.011581049
-0.00026738811
0.00025932907
0.01170632
-0.00049390497
4.7803157e-05
-0.011688387
0.011830927
-0.000267678
-0.0002246478
4.2921646e-05
4.7472015e-05
4.5067371e-05
3.7759606e-05
4.2058837e-05
5.1953343e-05
3.4765162e-05
5.9142696e-06
-0.0033689642
-1.6654093e-05
5.6137191e-06
0.0033889655
-1.4875039e-05
2.4773781e-05
2.4302459e-05
-0.0030771886
-3.7882793e-05
0.0031044458
-3.8451871e-05
0.0004095525
0.00032866621
-0.011899369
-0.00038650412
0.012115315
-0.00056762864
0.00071043731
-0.011784124
0.00040509852
-0.0003717474
0.011989664
-0.00094928907
0.00096136111
-0.011556843
0.00028653283
-0.00015633042
0.011742607
-0.0012772866
0.0010229459
-0.011485039
-4.7003245e-08
0.00015661244
0.011664004
-0.0013584314
0.00085091672
-0.011667528
-0.00028713869
0.0003726362
0.011862792
-0.0011316347
0.00056108916
-0.011870349
-0.00040606394
0.00038738542
0.012082567
-0.00075459075
6.930246e-05
-0.012011342
0.012228186
-0.00039361859
-0.00033021474
6.2235114e-05
6.9592916e-05
6.4397943e-05
5.5157982e-05
5.9538705e-05
7.255278e-05
5.4226773e-05
8.4804744e-06
-0.0034652526
-2.4225501e-05
8.1753223e-06
0.0034946163
-2.1794419e-05
3.2772713e-05
3.2198821e-05
-0.0031977324
-5.0477885e-05
0.0032344197
-5.1183797e-05
0.00055033133
0.00044160175
-0.012379891
-0.00052816248
0.012696112
-0.00077998384
0.00098753698
-0.012260286
0.00056369657
-0.00052618492
0.012609527
-0.001374285
0.0013771322
-0.012008989
0.00041121493
-0.0002270398
0.012408331
-0.0019606474
0.0014776063
-0.011929534
4.6202348e-07
0.0002266786
0.012343686
-0.0021188955
0.001203264
-0.012130203
-0.00041176485
0.00052740524
0.012501437
-0.0016901327
0.00076638283
-0.012351658
-0.00056521262
0.00052958706
0.012683846
-0.0010629292
9.2578851e-05
-0.012490417
0.012791766
-0.00052936601
-0.00044361283
8.2591307e-05
9.2676575e-05
8.3839916e-05
7.3427349e-05
7.706506e-05
9.4205305e-05
7.5264152e-05
1.116744e-05
-0.0036006205
-3.2175112e-05
1.089425e-05
0.0036398872
-2.9155507e-05
3.809127e-05
3.7423092e-05
-0.0033523095
-5.8996781e-05
0.0033956164
-5.9830951e-05
0.00064546791
0.00051632485
-0.013059689
-0.00062608349
0.0134591
-0.00093514095
0.0012005964
-0.013059998
0.00068214226
-0.00065778062
0.013615558
-0.0017805482
0.0017530928
-0.012968366
0.000536906
-0.00030760149
0.013607399
-0.0026214613
0.0019095579
-0.012920688
4.4494618e-06
0.00030166326
0.013547978
-0.0028429907
0.001499944
-0.013016773
-0.00053628579
0.00066051886
0.013640874
-0.0022483085
0.00091307404
-0.013081054
-0.00068547594
0.00062871742
0.013543163
-0.001318445
0.00010915247
-0.01313323
0.0134958
-0.00062097982
-0.00051915649
9.5952681e-05
0.00010724205
9.4773539e-05
8.530079e-05
8.6842341e-05
0.00010817305
9.0114699e-05
1.2948868e-05
-0.003772408
-3.746931e-05
1.2764633e-05
0.0038183889
-3.4231076e-05
3.6650944e-05
3.5914853e-05
-0.0035229016
-5.6854719e-05
0.0035649664
-5.7780426e-05
0.0006134786
0.00048752086
-0.013874327
-0.00059857455
0.014276629
-0.00090476554
0.001170481
-0.014210803
0.00067462624
-0.00066700947
0.014724155
-0.0016914923
0.0017004143
-0.014162254
0.00054053503
-0.00031430631
0.01449498
-0.0022594036
0.0018393009
-0.014057669
3.1606442e-05
0.00025938683
0.014333623
-0.0024062821
0.0014747939
-0.014246668
-0.00050599616
0.00065423954
0.014678155
-0.0020545624
0.00087749749
-0.014048747
-0.00067548601
0.00060291152
0.01454209
-0.0012983062
0.00010663997
-0.013865872
0.014211194
-0.0005893857
-0.00049174927
9.1224238e-05
0.00010084954
8.6604934e-05
8.07717e-05
7.9301779e-05
0.00010292009
8.7464116e-05
1.2468592e-05
-0.0039602513
-3.6044286e-05
1.2425136e-05
0.0040046987
-3.3304236e-05
2.6933544e-05
2.6164791e-05
-0.0036742013
-4.1461073e-05
0.0037049813
-4.2422331e-05
0.00043087465
0.00034085887
-0.014631205
-0.00042424351
0.014906921
-0.00062324387
0.00077699194
-0.015041715
0.00046687207
-0.00042838118
0.015119256
-0.00089305785
0.0010005131
-0.014545398
0.00033215055
-0.00020842514
0.014339159
-0.00091802597
0.0010491305
-0.014323016
7.1111083e-05
7.7718462e-05
0.014067561
-0.00094253151
0.00093391456
-0.014846926
-0.00023266354
0.00036974648
0.014751212
-0.00097531419
0.0006126274
-0.014939948
-0.00044500793
0.00042311735
0.015179834
-0.00083066104
7.9941872e-05
-0.014514542
0.014751836
-0.00041339317
-0.00034572511
6.451951e-05
7.077115e-05
5.7881897e-05
5.649631e-05
5.3319214e-05
7.599201e-05
6.2863167e-05
9.2432383e-06
-0.004126418
-2.6367709e-05
9.3226299e-06
0.0041591549
-2.4940971e-05
1.3109581e-05
1.235027e-05
-0.003772686
-1.9587041e-05
0.003787327
-2.051756e-05
0.00019207612
0.00015342339
-0.015078448
-0.00018491351
0.015142018
-0.0002241824
0.00024658013
-0.014981184
0.00016747275
-0.00011908786
0.014693821
-7.6229378e-06
0.00013110679
-0.013962469
8.3816996e-05
-8.0846022e-05
0.013507248
0.00032112798
0.00011104074
-0.013655139
9.8858314e-05
-0.00010525751
0.013175983
0.00037449926
0.00022431424
-0.014459871
6.9575114e-05
1.2656035e-05
0.014060368