/*--------------------------------*- C++ -*----------------------------------*\
| =========                 |                                                 |
| \\      /  F ield         | OpenFOAM: The Open Source CFD Toolbox           |
|  \\    /   O peration     | Version:  2406                                  |
|   \\  /    A nd           | Website:  www.openfoam.com                      |
|    \\/     M anipulation  |                                                 |
\*---------------------------------------------------------------------------*/
FoamFile
{
    version     2.0;
    format      ascii;
    arch        "LSB;label=32;scalar=64";
    class       volVectorField;
    location    "225";
    object      U;
}
// * * * * * * * * * * * * * * * * * * * * * * * * * * * * * * * * * * * * * //

dimensions      [0 1 -1 0 0 0 0];

internalField   nonuniform List<vector> 
71615
(
(0.00081624858 1.0011327 0.002559176)
(-2.4267172e-05 0.99998632 -2.8004114e-05)
(3.1318057e-05 1.0024439 3.5542419e-05)
(-2.2332559e-05 1.00075 -0.00019167451)
(-8.6342513e-06 1.0042032 -0.0001343756)
(1.7096474e-06 1.0030955 -0.00041374789)
(-6.2960219e-05 1.008418 -0.00026717718)
(2.0064596e-05 1.00764 -0.00074449278)
(-0.00015186859 1.0161047 -0.00045547694)
(4.2666695e-05 1.0155079 -0.0012582531)
(-0.00029573584 1.0289891 -0.00073407589)
(7.2416533e-05 1.0284894 -0.0020419667)
(-0.00052109975 1.0495317 -0.0011275728)
(0.00011234168 1.0490774 -0.0031753979)
(-0.00084993126 1.0806034 -0.0016289098)
(0.00015983988 1.0801732 -0.0046601026)
(-0.0012710926 1.1243383 -0.0021508617)
(0.00020126082 1.1239657 -0.0062796952)
(-0.0016938198 1.1796835 -0.0024796909)
(0.00020694854 1.1794766 -0.0074300544)
(-0.0019365326 1.2393743 -0.0023319416)
(0.00014583871 1.2394404 -0.0072114042)
(-0.0018568237 1.2903418 -0.0016392334)
(2.5894842e-05 1.2905976 -0.0052836185)
(-0.0015051653 1.3216814 -0.00074397653)
(-8.9125179e-05 1.3218574 -0.0025652325)
(-0.0010632538 1.3323517 -3.4553212e-05)
(-0.00015335767 1.3323474 -0.00029921259)
(-0.00066686312 1.3285877 0.00038444405)
(-0.00016992545 1.3284311 0.0010154821)
(-0.00039035198 1.3173555 0.00056959213)
(-0.000167228 1.3171565 0.0015164323)
(-0.00016496151 1.3038353 0.0005948162)
(-0.00017193662 1.3036834 0.0016437085)
(1.512783e-05 1.2908361 0.0005352482)
(-0.00017117564 1.2905985 0.0015682019)
(0.00011161682 1.2793645 0.00045953717)
(-0.00017292515 1.2789011 0.0013575282)
(0.00013144853 1.2694077 0.0003887234)
(-0.00018781049 1.2684658 0.001176889)
(4.5149896e-05 1.2602261 0.0003781436)
(-0.00025841172 1.2586593 0.0011271073)
(-0.00011284584 1.2506803 0.00044058702)
(-0.00038213376 1.2483397 0.0012722676)
(-0.00014733979 1.0000919 0.00067773485)
(-4.524243e-05 1.0000096 -8.4250853e-05)
(-3.2805221e-05 1.0000126 -0.00016410241)
(5.8558543e-06 1.0000126 -0.00018813621)
(4.1833085e-05 1.0000114 -0.00015817452)
(3.2373421e-05 1.0000159 -8.9951374e-05)
(-0.00025664933 0.99987314 -0.00013909074)
(-0.00017096508 1.0012254 -0.00024601934)
(-0.00064789191 1.0009382 -0.0016515831)
(-0.00037293006 1.000807 -0.0023346526)
(0.00014040571 1.0007698 -0.002436812)
(0.00057263314 1.0008564 -0.0020463404)
(0.00049819234 1.0007762 -0.0009437533)
(0.00013729613 1.0007245 -0.00024514848)
(-0.00042572862 1.0035812 -0.00065014286)
(-0.0013758093 1.003243 -0.0035168661)
(-0.00077874475 1.0028354 -0.0049308643)
(0.00029177262 1.002725 -0.0051225975)
(0.0011944293 1.0030145 -0.0043209526)
(0.0011396099 1.00303 -0.0020002364)
(0.00025683925 1.0033438 -0.00039786013)
(-0.00080691051 1.0081609 -0.0012276204)
(-0.0024649149 1.0076473 -0.0062859814)
(-0.0013965593 1.0067394 -0.0088306107)
(0.00051446674 1.0064939 -0.0091815453)
(0.0021351561 1.0071517 -0.0077275452)
(0.0020241863 1.0074203 -0.0035720357)
(0.00047715186 1.0080788 -0.00065707996)
(-0.0013985471 1.0161291 -0.0020894329)
(-0.0041672137 1.0153056 -0.010576614)
(-0.0023725358 1.0136143 -0.014921115)
(0.00086241244 1.0131512 -0.015541842)
(0.0036062054 1.0143922 -0.013032259)
(0.0033713599 1.0150468 -0.0060092738)
(0.00082577905 1.0161615 -0.0010753042)
(-0.0023008796 1.0292869 -0.0033754855)
(-0.0067806922 1.0280967 -0.017109365)
(-0.003891032 1.0253086 -0.024295379)
(0.0014003119 1.0245361 -0.025369893)
(0.0058669692 1.0266003 -0.021159705)
(0.0053965385 1.0277 -0.0097161748)
(0.0013577219 1.0294187 -0.0017130418)
(-0.0036001552 1.0501004 -0.0052052079)
(-0.010573579 1.048737 -0.026503953)
(-0.0061333465 1.0446641 -0.037988298)
(0.0021896414 1.0435234 -0.03980639)
(0.0091565821 1.046559 -0.032954758)
(0.008248002 1.0479156 -0.015051692)
(0.0021233055 1.0503171 -0.0026209778)
(-0.0052827545 1.0813563 -0.007565153)
(-0.015531145 1.080605 -0.038653848)
(-0.0091323846 1.0755885 -0.056093831)
(0.0032354015 1.07417 -0.059057612)
(0.013474129 1.0779249 -0.048414514)
(0.011808647 1.0787366 -0.021999205)
(0.0031120696 1.0816135 -0.0037828985)
(-0.0070744231 1.1249905 -0.010101762)
(-0.020845632 1.1266226 -0.051505527)
(-0.012443883 1.122232 -0.075825362)
(0.0043644487 1.1209742 -0.080324887)
(0.018116994 1.1242628 -0.065080083)
(0.015350715 1.1226402 -0.029529659)
(0.0041568884 1.1251797 -0.0050135941)
(-0.0082903725 1.1797399 -0.011905541)
(-0.024317833 1.1862534 -0.059703754)
(-0.014655309 1.1854932 -0.088552487)
(0.0050674918 1.18534 -0.094306782)
(0.021059592 1.1857729 -0.075910547)
(0.017250729 1.1790294 -0.034889893)
(0.004844716 1.1796846 -0.005862085)
(-0.0080106702 1.2384755 -0.011686256)
(-0.022895501 1.2508235 -0.055602692)
(-0.013993063 1.2579506 -0.081800809)
(0.0048118274 1.2606865 -0.087897944)
(0.019713601 1.2541235 -0.070402933)
(0.015470851 1.2406282 -0.03411391)
(0.004621288 1.2380336 -0.0057190996)
(-0.0059273583 1.2888145 -0.0088778921)
(-0.016149989 1.3045624 -0.037914143)
(-0.010400474 1.3207896 -0.056533977)
(0.0033623584 1.3260646 -0.062220023)
(0.014050125 1.3124659 -0.048189443)
(0.0096575283 1.2932104 -0.025503983)
(0.0032940335 1.2880676 -0.004359782)
(-0.003002172 1.3203043 -0.0046888455)
(-0.0075448464 1.3354037 -0.016453599)
(-0.0055355643 1.3525383 -0.025046465)
(0.0011532009 1.3560745 -0.028839111)
(0.0064332779 1.344867 -0.021325007)
(0.0025438802 1.3249579 -0.013110015)
(0.0014648226 1.3195433 -0.0024077304)
(-0.00053120444 1.3315569 -0.00097435913)
(-0.00070597282 1.3429246 -5.9022229e-05)
(-0.0020189021 1.3508966 0.00076933407)
(-0.00093061138 1.3498696 -0.00032171983)
(0.00036658426 1.3487879 -0.0003590312)
(-0.0027092839 1.3352684 -0.0026034635)
(-2.5189533e-05 1.3310099 -0.00073171668)
(0.00097280154 1.3282578 0.0014051983)
(0.0031633086 1.3338164 0.0093558177)
(0.00011816033 1.3271811 0.017184999)
(-0.0026033128 1.3208803 0.01811866)
(-0.0037708318 1.3327927 0.012764771)
(-0.0049857316 1.330953 0.003884489)
(-0.00084918793 1.3279855 0.00036576045)
(0.0016063218 1.317334 0.0025234844)
(0.0046968801 1.3146671 0.014106168)
(0.00082189021 1.2921683 0.024785104)
(-0.0038787097 1.2818674 0.026330799)
(-0.006171177 1.3050024 0.01946777)
(-0.0050502274 1.3190176 0.0068196531)
(-0.0011084828 1.3172684 0.00098259769)
(0.0017301224 1.3038998 0.002904884)
(0.0048504014 1.290066 0.01609333)
(0.00081999187 1.2552046 0.026872162)
(-0.0048745213 1.2428566 0.029624577)
(-0.0073822945 1.2727847 0.021271607)
(-0.0042207195 1.3035735 0.007477153)
(-0.0010434464 1.3039555 0.0012797016)
(0.0015807288 1.2907913 0.0028212294)
(0.0043206359 1.2636282 0.016243989)
(0.00044860528 1.2211071 0.026776741)
(-0.0055020587 1.2082385 0.029643953)
(-0.0080585147 1.2411693 0.020776697)
(-0.0034605038 1.2862882 0.0071920004)
(-0.00086996329 1.290957 0.0013506145)
(0.0013495014 1.2790176 0.0025363829)
(0.0035582006 1.2378912 0.015702044)
(-2.9961059e-05 1.1917667 0.025826164)
(-0.0059659214 1.1791585 0.027980759)
(-0.0084747222 1.2125802 0.019724251)
(-0.0032237953 1.2678273 0.0068347451)
(-0.0007391556 1.2794559 0.0012623847)
(0.0010976872 1.2684725 0.0023130295)
(0.0027991845 1.2141569 0.015103546)
(-0.00054021949 1.1673141 0.024280191)
(-0.0063047062 1.1553223 0.025782773)
(-0.0087537097 1.1878573 0.018648814)
(-0.0034643032 1.2489463 0.0066769918)
(-0.00067331162 1.2695227 0.0010875746)
(0.00092461919 1.2583821 0.0023191962)
(0.0022904713 1.1929271 0.015014565)
(-0.0010255228 1.1470493 0.022766763)
(-0.006509901 1.1358349 0.02373801)
(-0.0089189178 1.1667307 0.01757294)
(-0.0040308849 1.2304572 0.0067221086)
(-0.00068598028 1.2604975 0.00096478236)
(0.00085103132 1.2477523 0.002564196)
(0.0019137266 1.1734752 0.015278158)
(-0.0014517444 1.1297915 0.021919185)
(-0.0066440838 1.1198582 0.022401462)
(-0.0091758292 1.1479432 0.017104836)
(-0.0047429964 1.2126864 0.0070822542)
(-0.00085617691 1.2511936 0.0010439277)
(-7.1332458e-05 1.0000002 -7.358837e-05)
(-0.00012064932 1.0000155 -0.0001599962)
(-0.00012735535 1.0000183 -0.00025992125)
(-7.4440608e-05 1.0000174 -0.00032765481)
(1.3327459e-05 1.000014 -0.00034723454)
(9.5220732e-05 1.0000101 -0.0003131792)
(0.00013318515 1.0000071 -0.00023444573)
(0.00010758347 1.0000064 -0.00012923561)
(0.00012285846 0.99996829 -7.2030236e-05)
(-0.00052199998 1.0006908 -0.00054410675)
(-0.0015817935 1.0007563 -0.0021416314)
(-0.00156142 1.0004271 -0.0033000217)
(-0.00082553982 1.0001689 -0.0040704132)
(0.0002960126 1.0001073 -0.0042353275)
(0.0012827596 1.0002801 -0.0037488471)
(0.0016805899 1.000597 -0.0027480704)
(0.0013262166 1.0008951 -0.0015260799)
(0.00026680231 1.0006573 -0.00025077741)
(-0.0011545275 1.003021 -0.0011968217)
(-0.0032917397 1.002692 -0.0044647087)
(-0.0032767056 1.0015555 -0.0069059999)
(-0.0017418581 1.0006465 -0.0085670555)
(0.00062434145 1.0004292 -0.0089188678)
(0.0026932747 1.001041 -0.0078702085)
(0.0035100423 1.0021405 -0.0057367827)
(0.0028086943 1.0031559 -0.0032296309)
(0.00060380989 1.003061 -0.00054423846)
(-0.0020854711 1.0075676 -0.0021509508)
(-0.0058763651 1.0064239 -0.0079723547)
(-0.0059116987 1.0038257 -0.012426747)
(-0.0031626751 1.0017128 -0.015511886)
(0.001129584 1.0012059 -0.016167984)
(0.0048646436 1.0026336 -0.014210998)
(0.0063027596 1.0051592 -0.010282394)
(0.0050210858 1.0074902 -0.0057634351)
(0.0010880816 1.0077314 -0.00097760225)
(-0.0035197077 1.0154578 -0.0036125416)
(-0.0099315898 1.013039 -0.013458289)
(-0.01012352 1.0080998 -0.021227988)
(-0.0054706245 1.003997 -0.026749373)
(0.0019471757 1.0030031 -0.027940242)
(0.0083614521 1.0057914 -0.024405764)
(0.010721072 1.0106389 -0.017459224)
(0.0084509252 1.0150533 -0.0096810872)
(0.0018262838 1.0158078 -0.0016420826)
(-0.0056904773 1.0284932 -0.0058160341)
(-0.016187961 1.0244031 -0.02189974)
(-0.016802373 1.0160679 -0.035150236)
(-0.0092171734 1.0089238 -0.044921656)
(0.0032740951 1.0071639 -0.04707964)
(0.013973397 1.0120652 -0.040736191)
(0.017625827 1.0203762 -0.028654044)
(0.013669648 1.0277302 -0.015630159)
(0.0029404323 1.0290899 -0.0026425177)
(-0.0087909321 1.0491646 -0.0089551021)
(-0.025332663 1.0434328 -0.034216145)
(-0.026961039 1.0308782 -0.056284996)
(-0.015109085 1.019615 -0.073414835)
(0.005365185 1.0167648 -0.077327019)
(0.022663934 1.0246068 -0.065987696)
(0.027917618 1.0374257 -0.045308907)
(0.021163579 1.0482615 -0.024155591)
(0.0045268403 1.0500307 -0.0040648389)
(-0.012776499 1.0803291 -0.012984508)
(-0.037417982 1.074202 -0.050484589)
(-0.041167145 1.0580284 -0.085840113)
(-0.023748645 1.0425895 -0.11518409)
(0.0084407024 1.0385032 -0.12218453)
(0.035142501 1.0494954 -0.10226721)
(0.04191449 1.0665668 -0.067933317)
(0.030832894 1.0800726 -0.035130063)
(0.006556708 1.0813719 -0.0058850447)
(-0.017006847 1.1240586 -0.017261458)
(-0.050601069 1.1210852 -0.06827744)
(-0.057823232 1.1056236 -0.12084298)
(-0.034432462 1.0903373 -0.16727394)
(0.012317262 1.0863989 -0.17891957)
(0.050145361 1.0968965 -0.14659982)
(0.05782388 1.113947 -0.093711656)
(0.041039081 1.1261377 -0.046677775)
(0.0086928235 1.1249603 -0.0078053915)
(-0.019910797 1.1792502 -0.020208896)
(-0.059461595 1.1852028 -0.08045057)
(-0.071062251 1.184024 -0.14809885)
(-0.046612445 1.1872997 -0.21967698)
(0.016593666 1.1864547 -0.23997228)
(0.064799908 1.1858925 -0.18643597)
(0.069088827 1.1835543 -0.11211678)
(0.047621182 1.1859793 -0.054073522)
(0.010119719 1.1794392 -0.0091010489)
(-0.019361631 1.238778 -0.019691704)
(-0.055986584 1.2585082 -0.076018122)
(-0.072447119 1.2886787 -0.14797812)
(-0.046633082 1.2862059 -0.21139813)
(0.012399989 1.277956 -0.22663473)
(0.063555814 1.2930387 -0.18591071)
(0.067596086 1.2721104 -0.10878232)
(0.044827234 1.2509567 -0.050777515)
(0.0097355813 1.2377216 -0.0088045802)
(-0.014549164 1.2898713 -0.014894243)
(-0.039752322 1.3223389 -0.053938513)
(-0.048671699 1.3460562 -0.094776726)
(-0.028945464 1.2959621 -0.11228964)
(0.00023324886 1.2772622 -0.11579866)
(0.032722576 1.3238831 -0.10971418)
(0.048020354 1.3438475 -0.077334924)
(0.031296628 1.3048999 -0.035188781)
(0.0071008709 1.2877153 -0.0065715863)
(-0.007547417 1.3215838 -0.0078858921)
(-0.018847189 1.3541561 -0.024859744)
(-0.015795718 1.3225479 -0.023111113)
(-0.0081367282 1.2295975 0.00063186882)
(-0.011227077 1.2039694 0.005320696)
(-0.0034356187 1.2729987 -0.016081108)
(0.016884295 1.3556411 -0.029360644)
(0.014082767 1.3357563 -0.015479181)
(0.0033072729 1.3192298 -0.0033886946)
(-0.0014461359 1.3326058 -0.0017452732)
(-0.0010724228 1.3482456 0.0011229146)
(0.0086268014 1.258588 0.031357368)
(0.0037814166 1.1472056 0.066561717)
(-0.017118166 1.1194007 0.072335869)
(-0.026212268 1.1963124 0.045664917)
(-0.0092309095 1.3170493 0.0088024963)
(0.0006062336 1.3434409 -0.0003295122)
(4.4105694e-05 1.3307791 -0.00064303882)
(0.0024244098 1.3289092 0.0022034241)
(0.010397582 1.3158616 0.018438814)
(0.019738238 1.1930144 0.0580782)
(0.0075024415 1.0813439 0.089830389)
(-0.018774877 1.0551015 0.094333706)
(-0.034915252 1.1290755 0.070258355)
(-0.02504955 1.2608894 0.031673667)
(-0.0075282937 1.333631 0.0086291003)
(-0.0018824011 1.3278199 0.0010660863)
(0.0041895771 1.3176171 0.0040927093)
(0.015701076 1.2727048 0.027210324)
(0.021816354 1.1399846 0.06483657)
(0.0072356996 1.0368924 0.090177872)
(-0.018442361 1.0134895 0.092978917)
(-0.035799416 1.0801509 0.073436443)
(-0.031373358 1.2079005 0.040537162)
(-0.012044961 1.312092 0.013036542)
(-0.002569451 1.3171404 0.0018722623)
(0.00457271 1.3038488 0.0046143061)
(0.017344772 1.2307986 0.03062647)
(0.019881522 1.100899 0.062046705)
(0.0054502529 1.0085764 0.081209842)
(-0.017313016 0.98807016 0.082686496)
(-0.033465537 1.0469125 0.067199677)
(-0.032029364 1.1646099 0.040704669)
(-0.014150887 1.2839267 0.01440851)
(-0.0024833561 1.3038425 0.0020878023)
(0.0041894665 1.2901273 0.0044071274)
(0.016630708 1.1948236 0.030561567)
(0.016649057 1.0728824 0.055679877)
(0.003363397 0.99085838 0.069990615)
(-0.015994412 0.97297269 0.070540156)
(-0.030138733 1.024695 0.058134219)
(-0.030200252 1.1311135 0.037064489)
(-0.014874002 1.2540463 0.01412034)
(-0.0021477168 1.2908058 0.0019600229)
(0.003592898 1.2767789 0.0040506174)
(0.014841847 1.1654315 0.028848382)
(0.013409242 1.0527804 0.048772266)
(0.001522011 0.97979348 0.059507555)
(-0.014764845 0.96410855 0.059371792)
(-0.026846783 1.0097435 0.049269386)
(-0.027640243 1.1056521 0.032437888)
(-0.014919061 1.2257894 0.01313469)
(-0.0017999843 1.2791885 0.0016610776)
(0.0031193507 1.2632922 0.0039126573)
(0.012842578 1.1417203 0.02666856)
(0.010631954 1.038071 0.042617678)
(7.5579128e-05 0.97275275 0.050709877)
(-0.013691932 0.95888335 0.050082879)
(-0.023991078 0.99942365 0.041733566)
(-0.025171521 1.086201 0.028108844)
(-0.014871104 1.2006353 0.01221171)
(-0.0015932498 1.2689604 0.0013505925)
(0.0029308237 1.248981 0.0041554897)
(0.011184129 1.1221968 0.02478306)
(0.008448013 1.0265879 0.037695645)
(-0.0010018952 0.9680284 0.043739417)
(-0.01277677 0.95576631 0.042761758)
(-0.021679129 0.99180225 0.035776266)
(-0.023164021 1.0705718 0.024605206)
(-0.014788868 1.178724 0.011402894)
(-0.0016208514 1.2592718 0.0011866602)
(0.0031524594 1.2339678 0.0048697983)
(0.01017758 1.1048068 0.02374281)
(0.0068892704 1.017057 0.034108456)
(-0.0017632156 0.96490452 0.038481933)
(-0.012031468 0.9541408 0.037233536)
(-0.019931681 0.98595375 0.031355121)
(-0.021828275 1.0569562 0.022206416)
(-0.015053433 1.1588931 0.011064673)
(-0.0019635179 1.2489077 0.0012548649)
(0.00065810028 1.0000851 -0.00014658108)
(-0.00015784611 1.0000155 -0.00012319089)
(-0.00022963439 1.0000204 -0.00023234698)
(-0.00021582277 1.0000199 -0.00033216528)
(-0.00012116909 1.0000153 -0.00040136151)
(2.1143663e-05 1.000009 -0.00042125502)
(0.00015550602 1.0000041 -0.00038644793)
(0.00022977731 1.0000019 -0.00030657158)
(0.00021901469 1.0000021 -0.00020223744)
(0.00012259907 1.0000044 -9.2778359e-05)
(-0.0012205061 1.0006702 0.001141336)
(-0.00022693549 1.0012085 -0.0001951976)
(-0.0021170634 1.0007551 -0.0016123215)
(-0.0028670253 1.0002399 -0.0028985193)
(-0.002581011 0.99966145 -0.0040629755)
(-0.0013177093 0.99922911 -0.004833416)
(0.00046627069 0.99913103 -0.0049985611)
(0.0020674923 0.99941414 -0.0045098782)
(0.0028719842 0.99994811 -0.0035076954)
(0.0026174074 1.0005192 -0.0022471981)
(0.0014770847 1.0009407 -0.0010165998)
(3.6970695e-05 1.0019414 8.4145622e-05)
(-0.00061776351 1.0035573 -0.0004734769)
(-0.004418919 1.0026872 -0.0033493939)
(-0.0060154045 1.0009125 -0.0060751431)
(-0.0054704054 0.99885381 -0.0086001967)
(-0.0028139769 0.99728872 -0.010300304)
(0.00099425042 0.99693108 -0.010666842)
(0.0043962597 0.99796097 -0.0095843056)
(0.0060532299 0.99988019 -0.0073909681)
(0.0054703638 1.0018815 -0.0046929391)
(0.0031395822 1.0032772 -0.0021567969)
(0.00016713431 1.0039354 -5.1498861e-05)
(-0.0011789361 1.0081302 -0.00088159108)
(-0.0079025929 1.0064132 -0.0059657735)
(-0.01086488 1.0023559 -0.010958131)
(-0.010019992 0.99752175 -0.01572528)
(-0.005213 0.99375621 -0.019031253)
(0.0018395146 0.99288537 -0.019753209)
(0.0080937279 0.99538232 -0.017630731)
(0.011001284 0.99994712 -0.013423322)
(0.0098282471 1.0045802 -0.0084250405)
(0.005608869 1.0077421 -0.0038542046)
(0.00029615438 1.0083598 -0.00017672855)
(-0.0020218339 1.0160892 -0.0015045666)
(-0.013360962 1.0130198 -0.010060022)
(-0.018676557 1.0052883 -0.018812155)
(-0.017582444 0.99575258 -0.027547395)
(-0.0092961257 0.98807385 -0.033853169)
(0.0032795816 0.98626476 -0.035259478)
(0.014315355 0.991415 -0.03115711)
(0.01909649 1.0005765 -0.0232816)
(0.01673881 1.0095545 -0.01433941)
(0.0094304598 1.0155033 -0.0064804354)
(0.0004806136 1.0162787 -0.00035238193)
(-0.0032865171 1.0292361 -0.0024435067)
(-0.021771057 1.0243724 -0.016366252)
(-0.031207592 1.0112641 -0.031399816)
(-0.03029166 0.99422964 -0.047385336)
(-0.016405441 0.97981958 -0.059603378)
(0.0057985419 0.97633118 -0.062412555)
(0.02497639 0.98615766 -0.054309322)
(0.032386288 1.0029574 -0.03945045)
(0.027578224 1.0185707 -0.02361185)
(0.01523197 1.0284486 -0.010468039)
(0.00075459792 1.0294396 -0.00061161961)
(-0.0050933144 1.0500393 -0.0037846848)
(-0.03405356 1.0433878 -0.025576664)
(-0.050594169 1.0234862 -0.050866229)
(-0.051328556 0.99552325 -0.080199696)
(-0.028812861 0.97010945 -0.10446781)
(0.010234461 0.96370995 -0.11029202)
(0.043150587 0.98145072 -0.093755699)
(0.053656721 1.0101282 -0.065309318)
(0.043824402 1.034745 -0.037503503)
(0.023539531 1.0492796 -0.016181967)
(0.0011387616 1.05028 -0.00098401597)
(-0.0074311129 1.0812902 -0.0055129716)
(-0.050289529 1.074142 -0.03774936)
(-0.078431533 1.0481212 -0.078821989)
(-0.084569394 1.0069934 -0.13219657)
(-0.049799041 0.9658788 -0.18075318)
(0.017877066 0.95547965 -0.19316466)
(0.072906597 0.98428379 -0.15880272)
(0.085760765 1.0291379 -0.10433403)
(0.066120069 1.0631589 -0.056549952)
(0.034221425 1.0812936 -0.023533668)
(0.0016182183 1.0815576 -0.0014755669)
(-0.0099509024 1.1249308 -0.0073490875)
(-0.068059111 1.1210153 -0.051045337)
(-0.11267609 1.0952506 -0.11324253)
(-0.13569469 1.0530145 -0.21107895)
(-0.090400971 0.99794404 -0.32021844)
(0.031667479 0.97726353 -0.34757147)
(0.12608612 1.0267654 -0.27082697)
(0.12845297 1.0749191 -0.1562658)
(0.09190898 1.1106965 -0.078507884)
(0.045441869 1.1272115 -0.031254611)
(0.0020999165 1.1251659 -0.0020244003)
(-0.011748484 1.179705 -0.0085990689)
(-0.080229295 1.1851378 -0.060034415)
(-0.14368653 1.1829676 -0.14450617)
(-0.18511862 1.1416594 -0.28364272)
(-0.11316481 1.0082405 -0.38534683)
(0.029517589 0.96610254 -0.41220474)
(0.15373323 1.074664 -0.34567668)
(0.1757938 1.1785986 -0.21371226)
(0.11093004 1.182743 -0.094525911)
(0.052608369 1.1862699 -0.036166745)
(0.002377546 1.1797904 -0.0024560246)
(-0.01153663 1.2384808 -0.0083317441)
(-0.075773743 1.258487 -0.056694601)
(-0.14340238 1.2918665 -0.14204144)
(-0.14792532 1.1623133 -0.21640388)
(-0.08984945 0.9725894 -0.26752265)
(0.0066654174 0.92147012 -0.28875224)
(0.10067922 1.0593179 -0.25502321)
(0.15109527 1.2509157 -0.19109667)
(0.10937345 1.2777248 -0.09338953)
(0.049422066 1.2499074 -0.033954825)
(0.0021819321 1.238301 -0.0025346404)
(-0.0087465293 1.2888614 -0.0062360621)
(-0.053739203 1.322415 -0.040380359)
(-0.083789685 1.3169587 -0.077254034)
(-0.053002425 1.1019966 -0.058150599)
(-0.030593058 0.89150906 -0.02917549)
(-0.023869024 0.84057727 -0.030332209)
(0.0025047172 0.98423851 -0.059840904)
(0.055360325 1.2222845 -0.083718858)
(0.074982237 1.3476462 -0.065657145)
(0.034327863 1.3025234 -0.023693702)
(0.0014218222 1.288444 -0.0021834035)
(-0.0045818326 1.3203846 -0.0032824068)
(-0.025100187 1.3542817 -0.018708018)
(-0.0099921618 1.2592544 0.0010615135)
(0.024454726 0.99621406 0.06796438)
(0.013364289 0.77517988 0.13330682)
(-0.040570732 0.7219029 0.14303716)
(-0.065845283 0.87099009 0.085741476)
(-0.030253925 1.1322546 0.015472705)
(0.022633199 1.3453683 -0.023288987)
(0.015147656 1.3327188 -0.010681028)
(0.00039397512 1.3199164 -0.001633413)
(-0.00089275026 1.3316603 -0.00077543366)
(-1.5194422e-05 1.3482575 0.0005885238)
(0.034781094 1.1786608 0.048427061)
(0.056550194 0.9122808 0.11911937)
(0.026527023 0.71122048 0.17585455)
(-0.040938459 0.66517945 0.18257639)
(-0.086019153 0.79663872 0.13428006)
(-0.072389667 1.0446558 0.065399404)
(-0.019269822 1.2931183 0.010233113)
(0.00029372128 1.3407698 -0.00044485827)
(-0.00047408608 1.3312907 -0.001140413)
(0.0014608182 1.3283756 0.00076782074)
(0.016085824 1.3156538 0.013850392)
(0.05183689 1.1109197 0.066607742)
(0.060487765 0.86772555 0.12441996)
(0.025185219 0.69830933 0.16381549)
(-0.036277977 0.66094073 0.16653105)
(-0.082235286 0.76913367 0.13198022)
(-0.082978343 0.98520258 0.078571404)
(-0.042507022 1.2307801 0.028204339)
(-0.0083144661 1.3330602 0.0053875941)
(-0.00098139439 1.3281294 -0.00079753613)
(0.0025518575 1.317449 0.0014408047)
(0.02366924 1.2723621 0.02081195)
(0.053086739 1.0628723 0.068165442)
(0.053347398 0.85029619 0.11167352)
(0.019871828 0.71024968 0.13766393)
(-0.031096083 0.68012192 0.13777535)
(-0.071278383 0.76814637 0.11325785)
(-0.078542316 0.95099408 0.074144622)
(-0.049944467 1.1765898 0.033334946)
(-0.012657669 1.3153927 0.0077287885)
(-0.001144413 1.3172992 -0.00052259999)
(0.0029014054 1.304003 0.0016004341)
(0.026078454 1.230405 0.023768216)
(0.047666411 1.0309857 0.062633182)
(0.043586385 0.84737958 0.094672139)
(0.014402029 0.7309036 0.11177664)
(-0.026583337 0.70625236 0.11043429)
(-0.059813529 0.77871119 0.092439711)
(-0.069080996 0.93320823 0.063735663)
(-0.049210326 1.134622 0.031988938)
(-0.014591282 1.2918463 0.0082660399)
(-0.0010425417 1.3039337 -0.00030689908)
(0.0027787592 1.2908776 0.0014985545)
(0.02522035 1.1944277 0.024042241)
(0.040413036 1.0102888 0.055062358)
(0.03445848 0.85118338 0.078714151)
(0.0098447853 0.75286243 0.090095623)
(-0.022909874 0.73228556 0.087986495)
(-0.049886986 0.79303084 0.07421312)
(-0.059102808 0.92486283 0.052671804)
(-0.045146237 1.1034235 0.028173681)
(-0.014959136 1.2658021 0.0078678646)
(-0.0008527927 1.2909336 -0.00016365596)
(0.0024513772 1.2790801 0.0013403082)
(0.022925484 1.1650518 0.022991132)
(0.033481785 0.99677053 0.047718089)
(0.026927482 0.85756538 0.065383417)
(0.0063440724 0.77318366 0.073027712)
(-0.019981783 0.75567448 0.070523897)
(-0.041866529 0.80754087 0.059579824)
(-0.050292017 0.92158798 0.042969916)
(-0.040286167 1.0803552 0.023901309)
(-0.014764251 1.2400158 0.0071706745)
(-0.00068446988 1.279485 -8.1512291e-05)
(0.002164899 1.2684975 0.0012235724)
(0.020326885 1.1413635 0.021536973)
(0.027656907 0.98758481 0.041450619)
(0.021052413 0.8644326 0.054797529)
(0.0037594834 0.79101955 0.059911261)
(-0.017651629 0.77590366 0.057216466)
(-0.035563116 0.82081815 0.048259679)
(-0.043083342 0.92074941 0.035138034)
(-0.035790539 1.0629907 0.020078916)
(-0.014398618 1.215991 0.0063717487)
(-0.0005464967 1.2696923 -3.6766635e-05)
(0.0020604738 1.2583412 0.0012839969)
(0.018130847 1.1218641 0.020291573)
(0.023092759 0.98078001 0.036454487)
(0.016585594 0.87113311 0.046555551)
(0.0018844414 0.80662047 0.04987111)
(-0.015783082 0.79340739 0.047093514)
(-0.03064553 0.83274979 0.039608563)
(-0.037388186 0.92103288 0.029058752)
(-0.032170963 1.0491726 0.017057114)
(-0.01439455 1.1944008 0.0058467348)
(-0.00047562593 1.2609589 -2.3027676e-05)
(0.0021392688 1.2476219 0.0015572988)
(0.016803777 1.104518 0.019664377)
(0.019722311 0.97556142 0.032695907)
(0.013221576 0.8775892 0.04019987)
(0.00049644684 0.82028405 0.04211544)
(-0.014296979 0.80857819 0.039289238)
(-0.026820671 0.84347507 0.032971645)
(-0.033017755 0.92207848 0.02447351)
(-0.029614054 1.0373642 0.014940182)
(-0.014797878 1.1745854 0.0056232016)
(-0.00055679691 1.2521835 -5.1967458e-05)
(-8.3846124e-05 1.0000095 -4.8508595e-05)
(-0.00025799796 1.0000183 -0.00013027006)
(-0.00032953042 1.0000199 -0.00021895067)
(-0.00029797645 1.0000151 -0.00030117868)
(-0.00016465804 1.000007 -0.00035802984)
(2.8403857e-05 0.99999836 -0.00037451668)
(0.00021135124 0.99999275 -0.00034577244)
(0.00031929128 0.99999169 -0.00028004225)
(0.0003204226 0.99999482 -0.00019433794)
(0.00022356312 0.99999923 -0.00010635164)
(-8.6123649e-05 0.99999798 -5.2838155e-05)
(-0.0016367599 1.0009339 -0.00067848319)
(-0.0032775974 1.0004239 -0.001594992)
(-0.0040323858 0.99965927 -0.0026173003)
(-0.0035100755 0.99882532 -0.0035474275)
(-0.001770049 0.99820732 -0.0041665767)
(0.00062303852 0.99806769 -0.0042995907)
(0.0027864058 0.99847178 -0.0039058239)
(0.0039528041 0.99923709 -0.0031021349)
(0.0038111345 1.0000671 -0.0020996404)
(0.002526968 1.0007191 -0.0011010687)
(0.00070060254 1.0009369 -0.00036847564)
(-0.0034892672 1.0032304 -0.0014334502)
(-0.0068647261 1.0015443 -0.0033404219)
(-0.0085424944 0.99884586 -0.0055400199)
(-0.0075265256 0.99582145 -0.007598558)
(-0.0038272272 0.99354643 -0.008995288)
(0.0013459113 0.99302962 -0.009297898)
(0.0059988038 0.99452319 -0.0084047797)
(0.0084234191 0.99732223 -0.006608006)
(0.0080199536 1.0002985 -0.0044168237)
(0.0052785676 1.0025509 -0.0022906782)
(0.0017121106 1.0032162 -0.00075038171)
(-0.006245437 1.007621 -0.0025533286)
(-0.01236554 1.0038007 -0.006011369)
(-0.015636042 0.9975031 -0.010130936)
(-0.014046187 0.99019389 -0.014162207)
(-0.0072440071 0.98453656 -0.01699231)
(0.0025473826 0.98323372 -0.01761538)
(0.011275196 0.98698106 -0.015787069)
(0.015562956 0.99385136 -0.012203172)
(0.014538411 1.0009201 -0.0080021597)
(0.0094537612 1.0060946 -0.0040897307)
(0.0031328854 1.0076605 -0.0013354682)
(-0.010524029 1.0152609 -0.0042916435)
(-0.021146822 1.0080536 -0.010268782)
(-0.027419839 0.99571513 -0.0177496)
(-0.025352136 0.98068439 -0.025529725)
(-0.013364334 0.96850593 -0.031289617)
(0.004708216 0.96563627 -0.032591169)
(0.02058761 0.97382391 -0.028807032)
(0.027675067 0.98830214 -0.021690115)
(0.02513622 1.0024764 -0.013828797)
(0.016012387 1.0124061 -0.0069156386)
(0.0053006923 1.0153739 -0.0022496918)
(-0.017048589 1.0280305 -0.0069476419)
(-0.0350531 1.0159905 -0.017008621)
(-0.047210333 0.99415824 -0.030542812)
(-0.045594427 0.96556228 -0.045868714)
(-0.024852729 0.94074047 -0.058106886)
(0.0087994064 0.93468266 -0.060982365)
(0.037709566 0.951756 -0.052736431)
(0.04868165 0.98032441 -0.038140127)
(0.042379122 1.0063061 -0.0233117)
(0.026164578 1.0233248 -0.011294393)
(0.0085799916 1.0281503 -0.0036486383)
(-0.026445077 1.0486499 -0.010790179)
(-0.056186309 1.030756 -0.02725265)
(-0.07996771 0.99538728 -0.051717961)
(-0.08245314 0.94381117 -0.082901211)
(-0.047197111 0.89412415 -0.11030976)
(0.01684538 0.88152655 -0.11701742)
(0.070141991 0.91668937 -0.098055834)
(0.085152911 0.97113599 -0.066696044)
(0.069633998 1.0155272 -0.038304822)
(0.041101686 1.0417963 -0.017744968)
(0.013274223 1.048513 -0.0056728898)
(-0.038616833 1.0805064 -0.015802459)
(-0.085777635 1.057847 -0.041582065)
(-0.13191045 1.0067301 -0.085206969)
(-0.15096335 0.92108276 -0.15181777)
(-0.099313171 0.82607867 -0.22995863)
(0.036219994 0.79697106 -0.25007643)
(0.13879713 0.87250002 -0.19312808)
(0.14691294 0.96712533 -0.11492791)
(0.11006596 1.0369132 -0.060512807)
(0.061063972 1.0720962 -0.026366878)
(0.01932916 1.0794487 -0.0083151836)
(-0.051521739 1.1265376 -0.021167659)
(-0.12090093 1.1053804 -0.058404423)
(-0.21077771 1.0525953 -0.13697889)
(-0.27491273 0.90628534 -0.2736649)
(-0.16640383 0.67319172 -0.37635312)
(0.052350545 0.60679802 -0.40285125)
(0.23574384 0.78477977 -0.33561732)
(0.26002475 1.0012987 -0.20492845)
(0.162119 1.0836179 -0.088811129)
(0.083229038 1.1191629 -0.035891788)
(0.025762679 1.1232995 -0.011161873)
(-0.059802639 1.1862256 -0.024661691)
(-0.14834239 1.1838638 -0.071956971)
(-0.28622513 1.1408971 -0.18247845)
(-0.3109572 0.83300331 -0.29638889)
(-0.19681137 0.45949349 -0.41437791)
(0.043928724 0.35481339 -0.45883165)
(0.24865465 0.63348201 -0.37474604)
(0.30871958 1.0161878 -0.24876924)
(0.21687977 1.1840673 -0.12056035)
(0.098270912 1.1849456 -0.04217702)
(0.03007003 1.1792707 -0.013110432)
(-0.055764098 1.2508888 -0.023214011)
(-0.14870293 1.2888255 -0.072512044)
(-0.22629222 1.1610999 -0.13284335)
(-0.22121688 0.75827041 -0.18549117)
(-0.17101825 0.31472867 -0.28884369)
(0.00097850263 0.17891073 -0.35560377)
(0.15217736 0.52597358 -0.26934315)
(0.20731952 0.97881589 -0.1805887)
(0.20059982 1.2742205 -0.11352817)
(0.092815613 1.2632006 -0.040075957)
(0.028756921 1.2400633 -0.012590799)
(-0.038072522 1.3047253 -0.016448551)
(-0.096817812 1.3457673 -0.044782054)
(-0.074655554 1.1007105 -0.027496043)