/*--------------------------------*- C++ -*----------------------------------*\
| =========                 |                                                 |
| \\      /  F ield         | OpenFOAM: The Open Source CFD Toolbox           |
|  \\    /   O peration     | Version:  2406                                  |
|   \\  /    A nd           | Website:  www.openfoam.com                      |
|    \\/     M anipulation  |                                                 |
\*---------------------------------------------------------------------------*/
FoamFile
{
    version     2.0;
    format      ascii;
    arch        "LSB;label=32;scalar=64";
    class       volScalarField;
    location    "150";
    object      k;
}
// * * * * * * * * * * * * * * * * * * * * * * * * * * * * * * * * * * * * * //

dimensions      [0 2 -2 0 0 0 0];

internalField   nonuniform List<scalar> 
71615
(
0.019677407
0.019687245
0.017012325
0.01700796
0.014895567
0.014891081
0.013239444
0.013236094
0.011912895
0.011910625
0.010834773
0.010833723
0.0099541381
0.0099549495
0.0092412652
0.0092457644
0.0086787512
0.0086902528
0.0082456344
0.0082680655
0.0078980194
0.0079313903
0.0075771198
0.0076134584
0.0072544548
0.0072852799
0.0069411528
0.0069680151
0.0066517953
0.0066878512
0.0063990441
0.0064743859
0.0062071279
0.0064042032
0.0061284984
0.0065528762
0.006285477
0.0070714177
0.0068731771
0.0081697676
0.0082251057
0.010074552
0.010738429
0.012899463
0.019679998
0.019658104
0.019652974
0.019652114
0.019653517
0.019662228
0.01968798
0.017005392
0.016712046
0.016701817
0.016698379
0.016705218
0.016998119
0.017005772
0.014892207
0.014669823
0.014665255
0.014662717
0.014666449
0.014890556
0.014891422
0.013237472
0.013058604
0.013055412
0.013052949
0.013056083
0.013236366
0.013237005
0.011912154
0.011765229
0.0117619
0.011759041
0.011762701
0.011910784
0.011911985
0.010835449
0.010714286
0.010710607
0.010707104
0.010711599
0.010833522
0.010835442
0.0099568402
0.0098603478
0.0098578952
0.0098536738
0.0098583301
0.0099547734
0.0099568295
0.0092470283
0.0091807212
0.0091848425
0.0091804686
0.0091824693
0.0092471338
0.0092466292
0.0086885788
0.0086667175
0.0086906172
0.0086876325
0.0086806022
0.0086974311
0.0086869235
0.0082592923
0.0082948907
0.0083248769
0.008326147
0.0083382987
0.0082873852
0.0082552157
0.0079133052
0.0079757221
0.0084342269
0.0087559696
0.0081196968
0.0079680536
0.0079060424
0.0075904534
0.0079390397
0.011273525
0.013495497
0.0090759395
0.0076699417
0.0075813063
0.0072627503
0.0089058779
0.02024563
0.026260856
0.013221284
0.0073923184
0.007253838
0.0069466279
0.011815161
0.033630327
0.042761846
0.021426287
0.007311073
0.0069357979
0.0066541436
0.017179957
0.048303658
0.059466124
0.032379928
0.0076754807
0.0066427544
0.0064331519
0.024683506
0.06185226
0.074265717
0.044061842
0.0089523296
0.0063842548
0.0063286749
0.033311597
0.073492142
0.085477653
0.054924262
0.011717557
0.0061631353
0.0064263978
0.041974356
0.082311237
0.09289874
0.064371766
0.016414091
0.0060605333
0.0068975779
0.049902765
0.08796116
0.097128601
0.071710961
0.022464622
0.0061481222
0.0079888438
0.056659913
0.090975732
0.098871124
0.076616262
0.028956236
0.0066148472
0.0099438531
0.061736162
0.092087567
0.098854544
0.079566547
0.035033264
0.0077430395
0.012831683
0.06576576
0.09231197
0.097844696
0.081651406
0.040379982
0.0098135226
0.019673087
0.01965194
0.019650733
0.019650688
0.019650697
0.019650695
0.019650835
0.019653444
0.019681003
0.01700048
0.016695681
0.016686543
0.016682723
0.016682073
0.016684149
0.016690827
0.016709571
0.017002841
0.014889538
0.014662084
0.014656087
0.014651446
0.014650415
0.014653415
0.0146598
0.014669128
0.01488959
0.013235115
0.013053193
0.013048209
0.013043846
0.01304273
0.013045794
0.013051323
0.013058198
0.013234789
0.01191009
0.011759754
0.011752955
0.011747245
0.011745762
0.011749758
0.011756812
0.011765048
0.011909612
0.010834028
0.010708274
0.010699792
0.010692837
0.010691012
0.010695797
0.010704324
0.010714807
0.010833118
0.0099570329
0.0098556628
0.0098513263
0.0098486006
0.009847824
0.0098490609
0.009853431
0.0098628417
0.0099546461
0.0092508288
0.0091842202
0.0092056481
0.0092431705
0.0092460153
0.0092166379
0.0091934887
0.0091876695
0.0092445873
0.008698669
0.0086950912
0.0087587705
0.0089532881
0.0091320034
0.0088210803
0.0087453786
0.0086806904
0.0086850222
0.0082782792
0.0083383228
0.0099654306
0.028331273
0.039249172
0.015375551
0.0085886637
0.0083220515
0.0082535554
0.0079414688
0.0085560976
0.037075288
0.13428829
0.16736815
0.083224581
0.013304188
0.0080323924
0.0079047186
0.0076239445
0.012449492
0.10293256
0.23987627
0.27371476
0.17991842
0.04013258
0.0080046491
0.0075801469
0.0072982884
0.025302566
0.15893253
0.28439697
0.31269858
0.23236509
0.080384969
0.0090391083
0.0072519753
0.0069951821
0.044453003
0.18830611
0.29496595
0.31834022
0.25136614
0.11429024
0.01251304
0.0069326906
0.0067601415
0.065523698
0.19984972
0.28869951
0.30767604
0.25281995
0.13522458
0.019492689
0.0066406013
0.0067080521
0.082898217
0.2009248
0.27373046
0.28894267
0.24460898
0.14600204
0.029393886
0.0063816852
0.0070194385
0.094816365
0.19578459
0.25507923
0.26723317
0.23152944
0.14988589
0.040340339
0.0061960859
0.0080511173
0.10193843
0.18731869
0.23570985
0.2454864
0.2165946
0.14914134
0.050614799
0.0061491896
0.010245167
0.10541994
0.17741773
0.21719478
0.2251486
0.20154201
0.14556988
0.059376927
0.0063761232
0.013946657
0.10636221
0.16728462
0.20029238
0.20683392
0.18734407
0.14052499
0.066071168
0.0071621995
0.018769548
0.10585828
0.15777098
0.18528488
0.19067623
0.17453661
0.13512824
0.070656084
0.0088313161
0.023961901
0.10518141
0.1493801
0.1723007
0.17674791
0.16337486
0.13027978
0.074230571
0.011539093
0.01967999
0.019651937
0.019650658
0.019650626
0.019650608
0.019650606
0.019650616
0.019650643
0.019650718
0.019654026
0.019676115
0.017005375
0.016695653
0.016683319
0.016677988
0.016675863
0.016675498
0.016676691
0.01668009
0.016688429
0.016711782
0.017008074
0.014892233
0.014662082
0.014652467
0.014644087
0.014639523
0.014638612
0.014641384
0.014647794
0.014657722
0.014668913
0.014893842
0.013237562
0.013053185
0.013044962
0.01303508
0.013028129
0.013026622
0.013031057
0.013039936
0.0130496
0.013057576
0.013238365
0.011912322
0.011759712
0.011748797
0.011735853
0.011726299
0.011724158
0.011730374
0.011742263
0.011754835
0.011764444
0.011912485
0.010835607
0.010708181
0.010694802
0.010680336
0.010669789
0.010668048
0.010674918
0.0106872
0.010702199
0.010714168
0.010835063
0.0099569057
0.0098555282
0.0098490251
0.0098520687
0.0098618072
0.0098685352
0.0098715676
0.0098473249
0.0098526308
0.0098614452
0.0099549917
0.0092469995
0.009184107
0.0092209427
0.0092609114
0.0097907771
0.010219172
0.0094352791
0.0092546327
0.0091987323
0.0091836073
0.0092420723
0.0086885687
0.0086952153
0.0088581061
0.01646856
0.084202377
0.11622943
0.044072816
0.0097015946
0.0087668461
0.0086708656
0.0086777564
0.0082594058
0.0083390584
0.015420312
0.19091617
0.45696619
0.52374352
0.33738825
0.06616334
0.0088262277
0.0083022455
0.0082400428
0.0079136981
0.0085685269
0.092054492
0.42371042
0.68784807
0.74845897
0.57640932
0.25022549
0.018753178
0.0079972526
0.0078862125
0.0075910959
0.012544824
0.19771059
0.50116277
0.70451812
0.74832994
0.62000621
0.35682081
0.060836557
0.0078196627
0.0075613408
0.007263537
0.025605379
0.25057926
0.49958013
0.65981643
0.69485714
0.59353199
0.38374787
0.11344006
0.008255861
0.0072378301
0.0069475789
0.04497935
0.26785253
0.47053886
0.59452165
0.62066971
0.54391355
0.37759091
0.14800417
0.010185488
0.0069241874
0.0066550869
0.066126865
0.26696228
0.42883893
0.52175401
0.54060087
0.48447083
0.35597098
0.16554591
0.014539764
0.006633881
0.0064365258
0.083446389
0.25641111
0.3842163
0.45370426
0.4673882
0.4262088
0.32764801
0.17220927
0.021472854
0.0063723937
0.0063362476
0.095277137
0.24119263
0.34229435
0.39513251
0.40532716
0.37443119
0.29812338
0.17195732
0.030078214
0.0061523587
0.0064437762
0.10232181
0.2244462
0.30526409
0.34637875
0.3542084
0.33037465
0.27028049
0.16756357
0.039106174
0.0059958617
0.0069342712
0.10573723
0.20796832
0.27349182
0.30623581
0.31241964
0.29354297
0.24530443
0.1609798
0.047472261
0.0060014763
0.0080577469
0.1066208
0.19271667
0.24660882
0.27317294
0.2781594
0.26290586
0.22353838
0.1535213
0.054701463
0.0062916878
0.010055686
0.10607156
0.17914948
0.22388433
0.24576094
0.24985786
0.23731497
0.2048006
0.14619251
0.060260451
0.0071315399
0.012986305
0.10534529
0.16741281
0.20498466
0.2234467
0.22691653
0.21630483
0.18894276
0.1396731
0.064684707
0.0088952379
0.019658105
0.019650733
0.019650625
0.019650589
0.019650569
0.019650565
0.019650575
0.019650602
0.019650651
0.01965098
0.019669569
0.016712054
0.016686517
0.016677953
0.016674242
0.016672516
0.016672196
0.016673219
0.0166758
0.016681268
0.016692844
0.017001797
0.014669814
0.014656021
0.014644016
0.014635782
0.01463105
0.014630088
0.014633012
0.014639512
0.014649594
0.014659254
0.014891566
0.013058535
0.013048068
0.013034958
0.013021963
0.01301344
0.013011616
0.013017013
0.013028151
0.013041919
0.01305009
0.013237315
0.011765066
0.011752703
0.011735664
0.011717593
0.011705308
0.011702636
0.011710286
0.011726412
0.011744777
0.01175622
0.011912199
0.010714005
0.010699439
0.010680044
0.010661511
0.010654554
0.010653909
0.010653536
0.010670907
0.010689986
0.010704335
0.010836234
0.0098600016
0.0098509758
0.0098512548
0.0098666622
0.0098300907
0.0099131587
0.0098021902
0.0098758053
0.0098477656
0.0098518655
0.0099602645
0.0091804221
0.0092054232
0.0092639975
0.012870699
0.047243854
0.066416421
0.024944435
0.0097176934
0.0092499218
0.0091826577
0.0092576428
0.0086668092
0.0087591029
0.016631502
0.23542268
0.58667364
0.67615991
0.42667148
0.077445382
0.0091326601
0.0087013596
0.0087143245
0.0082958343
0.010027728
0.19301781
0.72517679
1.1681804
1.2733688
0.97583036
0.44841734
0.040883828
0.00837297
0.0083091881
0.0079788293
0.037955509
0.42608781
0.92663103
1.3197783
1.4177044
1.1466129
0.68103984
0.18264652
0.0093331009
0.0079850483
0.0079556208
0.10484305
0.50278818
0.8829908
1.1021554
1.2074609
1.0408684
0.69996648
0.2932186
0.017852711
0.0076750271
0.0089776445
0.16087461
0.50065712
0.80011651
1.0250656
1.0804048
0.92554569
0.65677332
0.33095846
0.037505545
0.007369384
0.011999275
0.18987436
0.4712899
0.69776537
0.84446159
0.87671386
0.78273999
0.5925977
0.33413145
0.060565057
0.0072287827
0.017517809
0.20110051
0.42938232
0.59497661
0.68935397
0.7084905
0.65110607
0.52058093
0.32088859
0.081802529
0.0074132871
0.025158421
0.20190992
0.38461954
0.50617499
0.56941574
0.58155377
0.54444473
0.45296126
0.2997537
0.097579455
0.0081938827
0.033872547
0.19655582
0.34259892
0.43385981
0.47858248
0.48687272
0.46122165
0.3946251
0.27598089
0.10751584
0.0098547147
0.04256857
0.1879228
0.30549711
0.37594054
0.40922306
0.41526797
0.3964376
0.34600735
0.25256653
0.11280867
0.01254789
0.050497331
0.17789187
0.27367183
0.32951239
0.35532378
0.35996004
0.34546941
0.30596042
0.2309469
0.11470343
0.016311726
0.057208586
0.16765933
0.24675049
0.29195429
0.3126211
0.31631974
0.30475162
0.27297977
0.21171727
0.11425947
0.020933866
0.062217874
0.1580687
0.22399619
0.26126232
0.27828158
0.28133221
0.2718011
0.24564272
0.19496959
0.11256199
0.025861951
0.06618381
0.1496169
0.20507408
0.23668965
0.2513538
0.25401046
0.24574578
0.22338712
0.18066463
0.11089379
0.030567539
0.01967732
0.019652975
0.019650687
0.019650606
0.019650568
0.019650545
0.019650539
0.019650551
0.01965058
0.019650629
0.019650776
0.019657059
0.017012192
0.016701809
0.016682673
0.016675775
0.016672468
0.016670794
0.016670469
0.016671487
0.016673903
0.016678508
0.016689677
0.016995565
0.01489547
0.014665213
0.014651338
0.014639363
0.014630956
0.014625951
0.014624918
0.014628044
0.014634821
0.014644864
0.014658645
0.014890166
0.013239354
0.013055278
0.01304363
0.013027863
0.013013285
0.013003763
0.013001721
0.013007785
0.013020223
0.013036017
0.013050232
0.013235925
0.011912812
0.011761615
0.011746878
0.011725907
0.011705088
0.011692545
0.011689556
0.011698145
0.011714856
0.011736931
0.011755184
0.011910253
0.010834657
0.010710168
0.010692342
0.010669395
0.010654364
0.010679904
0.010676816
0.010680151
0.01065533
0.010681124
0.010701999
0.010833742
0.0099539873
0.0098574324
0.0098480859
0.009864277
0.0098307322
0.010817702
0.01157908
0.010095964
0.0097638696
0.0098489754
0.0098514158
0.0099581138
0.0092411779
0.0091845934
0.0092441998
0.0098062036
0.04762115
0.2166376
0.27748758
0.1212752
0.015830694
0.0092208652
0.0091985001
0.0092586408
0.0086789459
0.0086911839
0.0089605968
0.085806443
0.58952349
1.0891944
1.2052355
0.87021918
0.29964245
0.014353944
0.008757706
0.0087249784
0.0082463872
0.0083272107
0.029186546
0.46241371
1.1745687
1.7512001
1.8741702
1.5018013
0.81238024
0.16558683
0.0090865846
0.0083371977
0.0078994357
0.0084588896
0.13708312
0.69178567
1.214294
1.7981851
1.9588052
1.6751426
0.99953747
0.39012553
0.022263074
0.0080334966
0.007578911
0.011419319
0.2425654
0.70701417
1.1043346
1.5363212
1.7608902
1.4986656
0.93731583
0.47208167
0.064103233
0.0078334869
0.0072563442
0.020676332
0.28645219
0.66144259
1.0264182
1.3535152
1.4260756
1.20589
0.84156989
0.47528783
0.10982266
0.0081129791
0.0069430849
0.034298918
0.29654154
0.59566838
0.84524855
1.0207602
1.0591854
0.94547648
0.72644163
0.45058595
0.14086159
0.009544681
0.0066538374
0.04908821
0.28991654
0.5225738
0.68983543
0.7871419
0.80688784
0.74730898
0.61420602
0.41305209
0.15778933
0.012705491
0.0064020896
0.062656013
0.27467776
0.45430353
0.56973006
0.62858244
0.63970567
0.60535254
0.51943369
0.37194549
0.16489659
0.017658349
0.0062130776
0.074272715
0.25581965
0.39557997
0.47879956
0.51779495
0.52479835
0.50278253
0.44341876
0.3327451
0.16558398
0.024292772
0.0061416018
0.083012142
0.2362927
0.34671984
0.40938016
0.43731529
0.44218113
0.42672585
0.3831428
0.29774175
0.16219732
0.031861951
0.0063129485
0.088568567
0.21765836
0.30650097
0.35544199
0.37668464
0.38033386
0.3686956
0.3351382
0.26745256
0.15646127
0.039240939
0.0069306693
0.091496634
0.20066503
0.273383
0.31271303
0.3296149
0.33250896
0.32327731
0.29646887
0.24164043
0.14961921
0.045639102
0.0083377857
0.092532668
0.18558769
0.24593015
0.27835515
0.2923248
0.29472807
0.28708253
0.26497194
0.21969819
0.1425854
0.050722608
0.010924867
0.092694538
0.1725496
0.22358601
0.2514148
0.26369457
0.26584544
0.25905466
0.23986146
0.2013648
0.13609609
0.054553604
0.019687546
0.019652115
0.019650695
0.019650603
0.019650563
0.019650538
0.019650531
0.019650545
0.019650574
0.019650624
0.019650772
0.01965476
0.017007888
0.016698378
0.016682001
0.016675377
0.016672115
0.016670444
0.016670113
0.016671135
0.016673543
0.016678018
0.016688457
0.016715056
0.014891033
0.014662688
0.014650281
0.014638401
0.014629934
0.014624861
0.014623804
0.014626979
0.014633845
0.014643877
0.014657404
0.014669395
0.013236054
0.013052831
0.013042485
0.013026285
0.013011366
0.013001623
0.012999518
0.01300572
0.013018488
0.013034637
0.013049169
0.013057641
0.011910571
0.011758775
0.01174537
0.011723677
0.011702296
0.011689424
0.011686317
0.011694821
0.011712388
0.011735089
0.01175395
0.01176412
0.010833556
0.010706711
0.010690529
0.010667505
0.010653688
0.010676635
0.010671836
0.010667652
0.010655782
0.010679119
0.010700726
0.010712874
0.0099548129
0.009853305
0.009847554
0.0098688403
0.0099162165
0.011598964
0.012875421
0.01035935
0.0098329226
0.0098504068
0.0098511595
0.0098577446
0.0092457337
0.0091803636
0.009246983
0.010258181
0.067367938
0.27885271
0.34793956
0.16474422
0.020277909
0.009271967
0.0092009087
0.009174881
0.0086906885
0.0086888521
0.0091532615
0.11887555
0.68091525
1.2082508
1.3278985
0.97811867
0.36692383
0.020261721
0.0087281716
0.0086540478
0.0082692103
0.0083303576
0.040349465
0.52996461
1.2825763
1.8792295
1.9913579
1.625539
0.89976784
0.20936014
0.0096609778
0.0082721891
0.007933116
0.0087892192
0.17007253
0.75331537
1.3540897
1.965127
2.0164519
1.8657083
1.0777877
0.44029854
0.029844223
0.0079543507
0.0076152936
0.013677357
0.27588985
0.75106587
1.2122118
1.7669479
1.7926554
1.7451803
1.0749261
0.51149388
0.082060905
0.0077551868
0.0072869735
0.02663719
0.31435679
0.69702228
1.0838085
1.429435
1.4899535
1.2780046
0.88464067
0.50665496
0.13172813
0.0081073782
0.0069698848
0.043272835
0.31965411
0.62228283
0.8786454
1.0606925
1.0987979
0.98254245
0.75548709
0.475435
0.16159783
0.0095872954
0.0066897798
0.060072722
0.30872139
0.54173508
0.70958196
0.80759265
0.82725702
0.76728427
0.63337949
0.43220667
0.17594682
0.012542685
0.0064790589
0.074889587
0.28977182
0.46818751
0.58221271
0.64007999
0.65093731
0.61717934
0.53250712
0.38661325
0.18028779
0.017092613
0.0064135737
0.086065605
0.26789235
0.40590544
0.48730224
0.52502306
0.53173017
0.51050557
0.45276546
0.34408191
0.17840174
0.022960856
0.0065713343
0.093428962
0.24601464
0.35464038
0.41556735
0.44233
0.44693531
0.43220859
0.39014337
0.30665711
0.17280841
0.029534564
0.0071063472
0.097595704
0.2255773
0.31275257
0.36018042
0.38044015
0.38387553
0.37284634
0.34058486
0.27459834
0.16527501
0.036174653
0.0082316706
0.09927711
0.20718691
0.27842338
0.31648933
0.33258927
0.33531099
0.3265748
0.30083372
0.24745343
0.15699008
0.042538109
0.010174524
0.09920565
0.19097097
0.25007263
0.28146773
0.29479163
0.29705697
0.28980951
0.26856229
0.22447518
0.14873531
0.047893436
0.013044965
0.098149068
0.17699795
0.22709667
0.25412365
0.26589853
0.26794144
0.26146173
0.24294219
0.20535966
0.14110277
0.051556976
0.019653518
0.019650692
0.019650612
0.019650573
0.019650549
0.019650543
0.019650556
0.019650585
0.019650635
0.019650795
0.019658584
0.016705213
0.01668408
0.016676587
0.016673159
0.016671458
0.016671123
0.016672144
0.016674615
0.016679483
0.016691862
0.016997117
0.014666424
0.014653294
0.014641206
0.014632888
0.014627984
0.014626962
0.014630009
0.01463668
0.014646692
0.014660199
0.014890154
0.013055985
0.013045583
0.01303078
0.013016816
0.013007696
0.0130057
0.013011501
0.013023468
0.013038455
0.013051313
0.013235509
0.011762462
0.011749428
0.011729989
0.011710031
0.011698046
0.01169482
0.011702621
0.011719691
0.011740215
0.01175657
0.011909497
0.010711226
0.010695385
0.01067429
0.010653401
0.010680358
0.010667919
0.010656465
0.0106632
0.010684811
0.010703814
0.010832371
0.0098579793
0.0098488753
0.0098666112
0.0098038779
0.010104435
0.010365361
0.0098816464
0.0098658789
0.0098487936
0.0098523326
0.0099551804
0.009182441
0.0092170004
0.0094472069
0.025417775
0.12280909
0.16568447
0.064838394
0.011576697
0.0092577242
0.0091914319
0.0092519961
0.0086814099
0.0088262827
0.045323849
0.43184162
0.87527376
0.98048401
0.67663089
0.18985538
0.010706138
0.0087407202
0.0087112392
0.0083404355
0.015820927
0.34282198
0.98443006
1.5095734
1.6289782
1.2774999
0.65665341
0.099835265
0.0085857238
0.0083156511
0.0081283722
0.084995227
0.58150279
1.1559493
1.6872642
1.8706331
1.5624515
0.86639359
0.30162361
0.013366641
0.0080037036
0.0091256264
0.1820473
0.62376647
1.0470331
1.5111824
1.7498916
1.4480006
0.83729252
0.39920683
0.039076399
0.0077265274
0.013366262
0.23408593
0.59629718
0.92994923
1.2110094
1.2798319
1.0812008
0.76440911
0.41714344
0.074842649
0.0076800234
0.021683709
0.25270788
0.54594459
0.7853306
0.94784524
0.98361531
0.8775514
0.67206343
0.40402854
0.10563785
0.0082305044
0.032731329
0.2538855
0.48591455
0.65264316
0.74851693
0.76785929
0.70903317
0.57717788
0.37662774
0.12611497
0.0099663491
0.044469373
0.24545864
0.42723656
0.54540775
0.60604265
0.61750888
0.58192815
0.49366567
0.34371514
0.13745135
0.013426137
0.055361289
0.23221611
0.37518068
0.46186532
0.50321827
0.51071191
0.48714729
0.42475802
0.31072227
0.14225735
0.018822553
0.064825011
0.21715726
0.33093831
0.39689351
0.42702383
0.4323483
0.41547994
0.36905998
0.28031203
0.1425671
0.025622654
0.072145488
0.20200879
0.29398017
0.34580833
0.36891233
0.37294724
0.36012933
0.32413056
0.2534206
0.13997644
0.032817617
0.077015077
0.18773625
0.26325468
0.30501384
0.32344272
0.32665153
0.31645994
0.2876304
0.23017482
0.1357333
0.039438578
0.079924245
0.17487022
0.23760051
0.27201118
0.28721389
0.2898704
0.28145281
0.25770072
0.21024528
0.13088097
0.044954232
0.081967407
0.16366288
0.2165455
0.24592098
0.25916403
0.26151269
0.25411803
0.23364147
0.19344909
0.1263896
0.049367773
0.019662228
0.019650834
0.019650641
0.0196506
0.019650579
0.019650574
0.019650585
0.019650614
0.019650665
0.019651298
0.019676763
0.016998096
0.0166908
0.01668005
0.016675784
0.016673921
0.016673577
0.016674657
0.01667748
0.016683955
0.016702173
0.017002291
0.014890509
0.014659729
0.014647717
0.014639476
0.014634837
0.014633889
0.014636739
0.014643132
0.014653299
0.014665462
0.014890344
0.013236269
0.013051172
0.013039803
0.013028098
0.013020248
0.013018548
0.013023542
0.013033749
0.01304579
0.013055547
0.013236043
0.011910544
0.011756549
0.011742066
0.011726355
0.011714915
0.011712486
0.011719793
0.011734078
0.011749865
0.01176221
0.011911077
0.010833094
0.010703986
0.010686993
0.010670882
0.010655524
0.010655929
0.010663338
0.010678373
0.01069602
0.01071134
0.010834926
0.0099542321
0.0098531954
0.0098474229
0.0098756868
0.0097650943
0.009832098
0.0098660482
0.0098533827
0.0098494841
0.0098592032
0.0099575812
0.0092467239
0.0091938106
0.0092553107
0.00974019
0.016029647
0.020458089
0.01159097
0.0092915526
0.0092168056
0.0091864775
0.0092509439
0.0086976195
0.0087470147
0.0097652696
0.079841799
0.30379807
0.36920808
0.19031615
0.020827146
0.0088145622
0.0086911553
0.0086994328
0.0082886044
0.0086032976
0.068300006
0.45471481
0.81880944
0.90313197
0.65722888
0.23449026
0.013432534
0.0083586922
0.0082816128
0.0079701367
0.013620131
0.25470271
0.68752489
1.0057824
1.0809166
0.86693895
0.47319836
0.074201961
0.0082011512
0.0079481158
0.0076726416
0.041156298
0.36070595
0.70497371
0.94196005
1.0778446
0.837853
0.54058096
0.17316442
0.0095409861
0.0076313474
0.0073974778
0.081866074
0.38677449
0.66050062
0.84495313
0.88647389
0.76491565
0.53085966
0.22834326
0.015268081
0.0073056856
0.0073236917
0.11578904
0.37992324
0.5952251
0.72864736
0.75676291
0.67247505
0.49525727
0.24886502
0.026335734
0.007000191
0.0077079537
0.13651856
0.35774336
0.52239117
0.61562565
0.63422125
0.5774767
0.44785707
0.25110047
0.040588399
0.0067757711
0.0090258296
0.14708317
0.32898888
0.45422702
0.52037969
0.53306744
0.49387401
0.39874658
0.24338658
0.054858947
0.0067328202
0.011861237
0.15079131
0.29914769
0.39553672
0.444078
0.45315244
0.42490559
0.35350843
0.23062872
0.06717265
0.0070466135
0.016637596
0.14989968
0.27107651
0.34668504
0.38362222
0.39042236
0.36916815
0.31407264
0.21587996
0.07698747
0.0080573782
0.022749283
0.14620678
0.24593512
0.30647906
0.33549991
0.34079431
0.32421316
0.2805524
0.20095557
0.083609263
0.010134877
0.029274709
0.14106413
0.22404744
0.27338703
0.29675038
0.30099674
0.28769602
0.25237308
0.18689483
0.087417734
0.013469702
0.03536069
0.13558873
0.20521862
0.24597028
0.26519718
0.26869337
0.25775468
0.22865657
0.17427084
0.08930909
0.017788466
0.040697588
0.1306774
0.18929281
0.22365798
0.24004778
0.24305189
0.23368785
0.20901941
0.16330171
0.090729299
0.022436264
0.019688022
0.019653442
0.019650719
0.01965065
0.019650628
0.019650624
0.019650637
0.019650667
0.019650849
0.019656677
0.017005795
0.016709565
0.016688462
0.016681309
0.016678557
0.016678096
0.016679594
0.016684017
0.01669293
0.016996267
0.014891448
0.014669106
0.014657753
0.014649646
0.014644934
0.014643988
0.01464685
0.01465339
0.014660646
0.014891554
0.013237003
0.013058118
0.013049616
0.013041993
0.013036128
0.01303479
0.013038657
0.013045915
0.013051921
0.013237208
0.011911941
0.01176485
0.011754824
0.011744893
0.011737116
0.011735309
0.011740469
0.011749998
0.011758287
0.011910591
0.010835305
0.010714483
0.010702189
0.010690164
0.01068143
0.010679435
0.010685109
0.010696165
0.010706617
0.010831891
0.0099566463
0.0098625241
0.0098527573
0.0098479583
0.0098496697
0.0098509683
0.0098488484
0.0098497122
0.0098543873
0.0099514279
0.00924659
0.0091877594
0.0091994093
0.00925135
0.0092254964
0.0092750243
0.0092592051
0.0092170767
0.0091852646
0.0092423471
0.0086873194
0.0086817831
0.0087687975
0.0091544776
0.014632763
0.020569253
0.010721702
0.0088151464
0.0087032387
0.0086933364
0.0082562923
0.0083246142
0.0088536675
0.042295586
0.16903592
0.21126921
0.1000915
0.013436796
0.0083786868
0.0082877794
0.0079078093
0.008037391
0.019390528
0.18686605
0.39456536
0.44249638
0.30188907
0.07410332
0.0088835203
0.0079767296
0.0075833481
0.0080286128
0.062920262
0.29745809
0.47579111
0.51334342
0.39945574
0.17294982
0.014443003
0.0077002296
0.0072558221
0.0091402547
0.11609033
0.33447437
0.47819726
0.50816029
0.41739868
0.22814844
0.031202835
0.0074945678
0.0069377585
0.012790956
0.15045417
0.33695393
0.45282299
0.47663943
0.40427898
0.24870107
0.054789618
0.0075876803
0.0066448666
0.020005862
0.16764169
0.32310054
0.41473689
0.43313502
0.37685604
0.2509766
0.077708014
0.0084012281
0.0063874462
0.030111792
0.17395312
0.30146476
0.37321093
0.38731748
0.34390843
0.24330019
0.094643719
0.010820666
0.0061684357
0.041172184
0.17338252
0.2773047
0.33370387
0.34461837
0.31088301
0.23057547
0.10539311
0.015736534
0.006071624
0.051469537
0.16872454
0.25359863
0.29847899
0.30707204
0.28044679
0.21585172
0.11123957
0.023200643
0.0061722956
0.060214154
0.16192852
0.23176073
0.26802919
0.27492573
0.25353557
0.20094395
0.11348812
0.031676397
0.0066658281
0.066827758
0.1542997
0.21236704
0.24209896
0.24771713
0.230275
0.18689545
0.11331793
0.039683128
0.007840633
0.071320598
0.14683548
0.19549499
0.22006876
0.22469187
0.21033383
0.17427885
0.11189333
0.046377734
0.0099764426
0.074810818
0.14020838
0.18109563
0.20167004
0.2055421
0.19352903
0.16331403
0.11039277
0.051756633
0.019681002
0.019654028
0.019650981
0.019650777
0.019650773
0.019650797
0.019651299
0.019656669
0.019677698
0.017002779
0.016711799
0.016692878
0.016689728
0.016688542
0.01669197
0.016702254
0.016996225
0.017003674
0.014889481
0.014668939
0.0146593
0.014658714
0.014657529
0.01466038
0.014665609
0.014891572
0.014889944
0.013234665
0.013057622
0.013050173
0.013050342
0.013049338
0.013051564
0.013055759
0.013237237
0.013235006
0.011909476
0.011764491
0.011756368
0.011755365
0.011754165
0.011756889
0.011762482
0.0119107
0.011909537
0.010832918
0.010714213
0.010704572
0.010702271
0.010700988
0.010704177
0.010711658
0.010832111
0.010832432
0.0099543948
0.0098616047
0.0098522316
0.0098518091
0.0098515563
0.0098527566
0.0098596133
0.0099517091
0.0099525811
0.0092444949
0.0091841795
0.0091833203
0.0091991976
0.0092014215
0.0091919283
0.0091869889
0.0092426912
0.0092396855
0.0086854792
0.0086722133
0.0087029535
0.0087589971
0.0087235189
0.0087414919
0.008691769
0.0086937361
0.0086750451
0.0082548007
0.0083047364
0.0083786138
0.0091230731
0.0096916075
0.0085886295
0.0083593286
0.0082881057
0.0082363507
0.0079067848
0.0079986577
0.0094217074
0.022859263
0.030191714
0.013384847
0.0082013232
0.0079769587
0.0078812667
0.0075826848
0.0078373529
0.018418133
0.065661009
0.082861194
0.039061744
0.0095319378
0.0077001304
0.0075557822
0.0072545426
0.0083306414
0.038796508
0.11190793
0.13265857
0.074746483
0.015210149
0.0074935446
0.007232277
0.0069352549
0.010400995
0.062379812
0.14284469
0.16251497
0.1055788
0.02620827
0.0075842823
0.0069188799
0.0066435765
0.014988022
0.083694909
0.15951839
0.17676223
0.12611062
0.040417
0.0083924849
0.0066277609
0.0063849783
0.022167363
0.099315105
0.16635939
0.18099197
0.13748125
0.054687945
0.010800277
0.0063700835
0.0062057234
0.030953144
0.10903724
0.16679338
0.17899947
0.14231468
0.067031927
0.015696954
0.0061607317
0.0061704887
0.040069625
0.11411544
0.16319061
0.17331073
0.14264408
0.076884679
0.023145385
0.0060416073
0.0064257887
0.048445701
0.11580733
0.15727648
0.16569737
0.14006354
0.083536138
0.031616167
0.0061119328
0.0072680356
0.055638457
0.11518642
0.15029113
0.1573471
0.13582408
0.087366522
0.039628674
0.006503249
0.0090216371
0.061101959
0.11334014
0.14314313
0.14903913
0.13097185
0.089276671
0.046335055
0.0074562851
0.011825065
0.065431456
0.11154382
0.13656249
0.14136332
0.12647912
0.090706937
0.051721506
0.0092546909
0.019676316
0.019669569
0.019657061
0.019654761
0.019658583
0.019676764
0.017008245
0.017001812
0.016995587
0.016715104
0.016997208
0.017002401
0.014893987
0.014891587
0.014890201
0.014669478
0.014890345
0.014890543
0.013238473
0.013237378
0.013235974
0.01305775
0.013235766
0.013236322
0.011912556
0.011912314
0.011910346
0.011764247
0.011909835
0.011911434
0.010835082
0.010836424
0.010833903
0.010712999
0.0108327
0.010835344
0.009955038
0.0099606295
0.0099583996
0.009857957
0.0099554381
0.0099580152
0.0092422232
0.0092582698
0.0092591325
0.0091752735
0.0092522924
0.0092514649
0.0086782249
0.0087155174
0.0087260086
0.008654859
0.0087117972
0.0087001219
0.0082411573
0.0083112161
0.0083390373
0.0082734849
0.0083165954
0.0082825555
0.0078881439
0.007987909
0.0080362051
0.0079554308
0.0080048738
0.0079491232
0.0075639025
0.0076791759
0.007843849
0.0077606081
0.0077278435
0.0076322169
0.0072406584
0.0073773381
0.0081540398
0.0081263582
0.0076812356
0.007306353
0.0069271403
0.0072488614
0.0096656213
0.0096352066
0.0082300705
0.0070008579
0.0066368506
0.0074638703
0.012952096
0.012635861
0.0099642956
0.0067753948
0.0063762694
0.0083044299
0.018045532
0.017241079
0.01342642
0.0067303072
0.0061586174
0.010055651
0.024830613
0.023162106
0.018832656
0.0070390188
0.006008795
0.012857052
0.032495682
0.029774621
0.025649519
0.0080408545
0.0060314022
0.016744454
0.039908992
0.036437736
0.032864003
0.010107808
0.0063567882
0.021462593
0.046296391
0.042809471
0.039500571
0.013434499
0.0072662948
0.026440337
0.051340867
0.048159553
0.045025551
0.0177536
0.0091431427
0.031155804
0.055116146
0.051808645
0.049445386
0.022408879
0.019676317
0.019676765
0.017632571
0.017623891
0.01966957
0.019658582
0.01762111
0.017611555
0.019687546
0.017638977
0.017634915
0.019657058
0.01965476
0.017609206
0.017940016
0.01967741
0.017635003
0.017638971
0.019654758
0.019657059
0.017940019
0.017609165
0.019658582
0.019669569
0.017611618
0.017621096
0.019676764
0.019676316
0.017623903
0.017632575