/*--------------------------------*- C++ -*----------------------------------*\
| =========                 |                                                 |
| \\      /  F ield         | OpenFOAM: The Open Source CFD Toolbox           |
|  \\    /   O peration     | Version:  2406                                  |
|   \\  /    A nd           | Website:  www.openfoam.com                      |
|    \\/     M anipulation  |                                                 |
\*---------------------------------------------------------------------------*/
FoamFile
{
    version     2.0;
    format      ascii;
    arch        "LSB;label=32;scalar=64";
    class       volScalarField;
    location    "150";
    object      nut;
}
// * * * * * * * * * * * * * * * * * * * * * * * * * * * * * * * * * * * * * //

dimensions      [0 2 -1 0 0 0 0];

internalField   nonuniform List<scalar> 
71615
(
0.0019974602
0.0019974125
0.0019737624
0.0019735988
0.0019523666
0.0019522635
0.0019337041
0.0019336516
0.00191733
0.0019173248
0.0019031713
0.001903245
0.0018916475
0.0018918941
0.0018838917
0.0018845558
0.0018815615
0.0018831024
0.0018853362
0.0018883431
0.0018922865
0.0018968761
0.0018964063
0.0019015546
0.0018948385
0.0018994491
0.0018901614
0.0018948558
0.0018856455
0.0018936967
0.0018855488
0.0019055399
0.0018983112
0.001955254
0.001941977
0.0020693911
0.002053893
0.0022964489
0.0022951272
0.0026904902
0.0027609298
0.0033145047
0.0035481393
0.0041862187
0.0019973544
0.0019971699
0.001997127
0.0019971198
0.0019971313
0.0019972053
0.0019974283
0.0019735886
0.0019708242
0.0019707366
0.0019707118
0.0019707712
0.0019734952
0.0019736006
0.0019522853
0.0019498946
0.0019498727
0.0019498643
0.001949885
0.0019522496
0.0019522908
0.0019336672
0.0019315196
0.0019315205
0.0019315127
0.0019315225
0.0019336407
0.0019336808
0.001917338
0.0019154636
0.001915483
0.001915461
0.0019154741
0.0019173129
0.001917355
0.0019032595
0.0019018369
0.0019019372
0.0019018881
0.0019018844
0.0019032462
0.0019032696
0.0018919019
0.0018914645
0.0018918976
0.0018918197
0.0018916822
0.0018919798
0.0018918889
0.0018844616
0.00188625
0.0018877208
0.001887667
0.0018870704
0.0018849369
0.0018843805
0.0018826165
0.0018890704
0.0018930531
0.0018930068
0.0018916765
0.0018843547
0.0018823558
0.0018869064
0.0018999072
0.0019033256
0.0019043236
0.0019081529
0.0018913734
0.0018863026
0.0018941341
0.0019083291
0.0020124577
0.002084387
0.0019333465
0.0019024055
0.0018930601
0.0018980465
0.0019803524
0.0027115462
0.0031766592
0.0022396894
0.001910915
0.0018966805
0.0018958412
0.002297539
0.0047317182
0.005853345
0.003264707
0.0019211402
0.0018944667
0.0018910847
0.0030848796
0.0074463206
0.0087712722
0.0051731316
0.0019778858
0.0018890677
0.0018860186
0.0044437776
0.0099498244
0.011374397
0.0074504891
0.0021535109
0.001883892
0.0018951984
0.0061810664
0.01206227
0.01376946
0.0095240617
0.0025618352
0.0018822574
0.0019337406
0.0079308122
0.014036485
0.015844687
0.011330935
0.0033100333
0.0018862877
0.0020327834
0.0095149917
0.015862202
0.017631662
0.013058117
0.0044142146
0.0019224685
0.0022327688
0.011010086
0.0174562
0.019162651
0.01469498
0.005712047
0.0020165061
0.0026038691
0.012500972
0.018826802
0.02040494
0.016149201
0.007101264
0.0022160316
0.0031925097
0.013902978
0.019972586
0.021390299
0.017447761
0.0085068021
0.0026038006
0.0039826936
0.015302395
0.020967247
0.022195349
0.018695472
0.0099010254
0.0032462698
0.0019972952
0.0019971184
0.0019971082
0.0019971079
0.001997108
0.0019971079
0.0019971088
0.00199713
0.0019973617
0.0019735182
0.0019706884
0.0019705953
0.0019705614
0.0019705564
0.0019705749
0.0019706357
0.0019707964
0.0019735414
0.0019522344
0.0019498607
0.0019497894
0.0019497464
0.001949737
0.0019497656
0.0019498255
0.0019498826
0.001952232
0.0019336281
0.0019315181
0.0019314685
0.0019314412
0.0019314325
0.0019314535
0.0019314906
0.0019315157
0.0019336109
0.0019173212
0.0019154786
0.00191548
0.0019155005
0.0019155006
0.0019154889
0.0019154729
0.0019154895
0.0019172806
0.0019033088
0.0019019429
0.0019022276
0.0019025052
0.0019025638
0.0019023682
0.001902069
0.0019019558
0.0019031973
0.0018921365
0.0018919759
0.0018934228
0.001894828
0.0018951668
0.0018940572
0.0018926457
0.0018918352
0.0018918199
0.0018851404
0.0018881076
0.0018936048
0.0019017804
0.0019026083
0.0018958031
0.0018906392
0.0018872026
0.0018843086
0.0018841214
0.0018945725
0.0019009328
0.001956639
0.0019884673
0.0019146266
0.0019030207
0.0018909298
0.001882274
0.0018896547
0.0019049705
0.0022344749
0.005564401
0.0073006167
0.0032548059
0.0019547697
0.0019039083
0.0018862153
0.0018982716
0.0020377724
0.0071198553
0.018930675
0.022379565
0.013114505
0.0029893377
0.0019177188
0.0018929739
0.0019030755
0.0029446897
0.01557145
0.030703228
0.034330289
0.02418001
0.0077233333
0.0019912812
0.0018965726
0.0019015125
0.0055359056
0.02245392
0.037156074
0.040414287
0.03109934
0.013067412
0.0023191861
0.0018942156
0.001900566
0.0085469709
0.026998984
0.040185346
0.043014577
0.034854011
0.017597081
0.0032148705
0.0018886375
0.0019119359
0.01161954
0.029726365
0.041363799
0.043823157
0.03669708
0.021122635
0.0048528
0.0018838229
0.0019691268
0.01442822
0.031347309
0.041626841
0.043772429
0.037523466
0.023618596
0.0068983833
0.0018820442
0.0021277655
0.0169061
0.032311083
0.041422852
0.043303538
0.037800411
0.025348035
0.0088368243
0.0018965859
0.0024708119
0.018899823
0.032864524
0.040975336
0.042633959
0.037761492
0.026560814
0.010600488
0.0019481716
0.003063606
0.020427089
0.033149509
0.0404153
0.041895325
0.037539185
0.027437119
0.012315976
0.0020787154
0.0039421967
0.021603791
0.033273831
0.039835166
0.041167452
0.037238403
0.028076975
0.013977108
0.0023569093
0.0050382023
0.022608463
0.033356013
0.039296967
0.04049368
0.036951023
0.028607264
0.01549654
0.0028611282
0.0062737153
0.023646142
0.033506055
0.038863188
0.039932675
0.036752406
0.029181612
0.016962947
0.0035930012
0.0019973543
0.0019971184
0.0019971076
0.0019971075
0.0019971075
0.0019971075
0.0019971076
0.0019971076
0.0019971078
0.0019971346
0.0019973847
0.0019735896
0.0019706879
0.0019705641
0.0019705162
0.0019704999
0.0019704982
0.0019705079
0.0019705359
0.0019706108
0.0019708202
0.0019736606
0.0019522918
0.0019498603
0.0019497502
0.0019496736
0.0019496397
0.0019496348
0.0019496554
0.0019497084
0.0019498004
0.0019498848
0.0019523202
0.0019336817
0.0019315172
0.0019314367
0.001931381
0.0019313603
0.0019313589
0.0019313695
0.0019314088
0.0019314699
0.0019315093
0.0019336797
0.0019173631
0.0019154753
0.0019154744
0.0019155673
0.0019156888
0.0019157281
0.0019156368
0.0019155149
0.0019154647
0.0019154655
0.0019173251
0.0019032881
0.0019019353
0.0019023894
0.0019032786
0.0019040157
0.0019043243
0.0019038353
0.0019027724
0.0019021337
0.0019018801
0.0019031867
0.0018919246
0.0018919647
0.0018943059
0.0018990768
0.0019032601
0.0019051541
0.0019045045
0.0018960922
0.0018930002
0.0018916026
0.0018916695
0.0018844761
0.0018881006
0.0018973811
0.0019041138
0.0020235821
0.0021054339
0.0019412132
0.001904139
0.0018919135
0.0018865564
0.0018838541
0.001882634
0.0018946055
0.0019201906
0.0033378731
0.012457972
0.016022244
0.0076280188
0.0020940246
0.0019065311
0.0018894475
0.0018812543
0.0018869399
0.0019051175
0.0032573686
0.023666366
0.047860598
0.053671558
0.037246581
0.010492656
0.0020077054
0.0019010315
0.0018843939
0.0018942053
0.0020406451
0.013714139
0.047152404
0.071764016
0.077142371
0.061614715
0.030088051
0.0040120604
0.0019121307
0.0018904588
0.0018981539
0.0029641745
0.025646196
0.058033633
0.078019352
0.082121821
0.069918597
0.042962678
0.010271589
0.0019454607
0.0018939598
0.0018959724
0.0055850229
0.033010729
0.06097634
0.077561527
0.081028776
0.070868215
0.048299435
0.016809229
0.0021421567
0.0018921917
0.0018912576
0.0086148657
0.036697783
0.060798239
0.074777748
0.077659598
0.069167377
0.049951252
0.021744909
0.0026925131
0.0018873193
0.001886198
0.011695819
0.038374069
0.059236319
0.071020173
0.07340968
0.066324637
0.049926272
0.02501147
0.003824371
0.0018823715
0.0018960846
0.014502748
0.039024233
0.057149228
0.067172834
0.06918267
0.063198987
0.049115674
0.027123075
0.0054718593
0.0018795224
0.0019358107
0.016972154
0.039120173
0.054982096
0.063636644
0.065360224
0.060215211
0.047984214
0.028539999
0.0072716445
0.0018837086
0.0020377456
0.018954945
0.038927035
0.052936567
0.060524724
0.062030099
0.057528615
0.046771765
0.029495133
0.0089279554
0.0019031762
0.0022429408
0.020473508
0.038592018
0.051091482
0.057833944
0.059168119
0.055173182
0.045598271
0.030120201
0.010470311
0.001969804
0.0026222619
0.021640549
0.038213985
0.049474417
0.055519776
0.056713169
0.053135207
0.044533908
0.030529952
0.012018375
0.0021214012
0.0032202076
0.022643905
0.037874245
0.048067507
0.053524862
0.054601544
0.051371663
0.043601846
0.03086499
0.013503951
0.0024402059
0.0040181722
0.02367544
0.037637894
0.046919861
0.051912269
0.052899341
0.049939142
0.042848378
0.031256804
0.014982735
0.0030184071
0.00199717
0.0019971082
0.0019971075
0.0019971073
0.001997107
0.0019971069
0.0019971071
0.0019971074
0.0019971076
0.0019971101
0.0019972661
0.0019708254
0.0019705939
0.0019705139
0.0019704824
0.0019704689
0.0019704672
0.0019704761
0.0019704975
0.0019705445
0.0019706588
0.0019735353
0.0019498955
0.0019497854
0.0019496687
0.0019496053
0.0019495794
0.0019495764
0.0019495922
0.0019496354
0.0019497214
0.0019498272
0.0019522723
0.0019315171
0.0019314588
0.0019313717
0.0019313397
0.0019313638
0.0019313752
0.0019313519
0.0019313515
0.0019314141
0.0019314779
0.0019336734
0.0019154542
0.0019154608
0.0019155521
0.0019158328
0.0019162431
0.0019163501
0.0019160248
0.0019156782
0.0019154856
0.0019154308
0.0019173864
0.001901817
0.0019021992
0.0019032508
0.0019049339
0.0019076277
0.0019084025
0.0019056888
0.001904188
0.0019025891
0.0019019018
0.0019034401
0.0018914379
0.0018933975
0.0018989622
0.0019056019
0.0019031621
0.0019217776
0.0018935225
0.0019065874
0.0018953595
0.0018920154
0.0018924588
0.0018862291
0.0018935715
0.0019048104
0.0026112476
0.0080923173
0.010539476
0.0047555131
0.0020080522
0.0019032057
0.0018884463
0.0018859779
0.0018891035
0.001900611
0.0033674234
0.027397954
0.0565877
0.06359327
0.04375347
0.01159177
0.0019867105
0.0018953516
0.0018861645
0.0019000292
0.0022464607
0.023856747
0.070533592
0.10504071
0.11271475
0.090523224
0.047031658
0.007425224
0.0019096797
0.0018938014
0.0019087842
0.0072507887
0.047362131
0.092234197
0.12234756
0.12922911
0.10964109
0.071124482
0.023480143
0.0022016674
0.0019040657
0.001984326
0.015778553
0.05818204
0.094174844
0.11159969
0.11948479
0.10675001
0.077583247
0.036166741
0.0040398748
0.0019113641
0.0023138847
0.022671343
0.061082639
0.091067288
0.11046666
0.11486983
0.10226005
0.0772739
0.042371397
0.0076357675
0.001916013
0.0031268457
0.027179744
0.060880699
0.085948607
0.10095582
0.10412836
0.094798635
0.074578507
0.044789922
0.011017515
0.0019579677
0.0045168397
0.029876877
0.059302224
0.08021824
0.092008256
0.094396716
0.087266105
0.070870479
0.04542879
0.014131404
0.002086631
0.0062721186
0.031477351
0.057202415
0.074866711
0.084483693
0.086391023
0.080656012
0.067050956
0.045205317
0.016809574
0.0023728808
0.0080223818
0.032421613
0.055025323
0.070210478
0.078334109
0.079930598
0.075116863
0.063530694
0.04456599
0.019059043
0.0028913998
0.0096046091
0.032955892
0.052971789
0.066255706
0.073308302
0.074689345
0.0705213
0.060429449
0.043758064
0.020830538
0.003626453
0.011101453
0.033224564
0.051120184
0.062915759
0.069155871
0.070376187
0.066692365
0.057750762
0.042912403
0.022180963
0.0045300267
0.012590982
0.033336093
0.049498142
0.060081733
0.065677066
0.066771989
0.063468008
0.05545265
0.04211089
0.023196882
0.0055720126
0.013988217
0.033408814
0.048087119
0.057668383
0.062748024
0.063743924
0.060741029
0.053476595
0.041401518
0.024053762
0.0066966723
0.015382871
0.033550642
0.046936242
0.055745845
0.060458701
0.061386726
0.05859283
0.05188162
0.040836158
0.024958759
0.0078674843
0.0019974558
0.001997127
0.0019971078
0.0019971074
0.0019971069
0.0019971063
0.0019971061
0.0019971065
0.0019971071
0.0019971075
0.0019971084
0.0019971623
0.0019737565
0.0019707364
0.0019705582
0.001970494
0.0019704656
0.0019704519
0.0019704497
0.0019704593
0.0019704801
0.0019705195
0.0019706228
0.0019734644
0.0019523632
0.0019498709
0.0019497392
0.0019496281
0.0019495727
0.0019495539
0.0019495525
0.0019495639
0.0019495994
0.0019496774
0.0019498103
0.0019522389
0.0019337018
0.0019315127
0.001931426
0.0019313401
0.0019313527
0.0019314328
0.0019314566
0.0019313995
0.0019313382
0.001931378
0.0019314736
0.0019336403
0.0019173297
0.0019154631
0.0019154729
0.0019156587
0.0019162279
0.0019170761
0.0019172237
0.0019167728
0.0019158625
0.0019155341
0.0019154489
0.0019173535
0.0019031691
0.0019019024
0.0019024665
0.0019039949
0.0019076246
0.0019168679
0.00191697
0.0019153393
0.0019045392
0.0019031068
0.0019020642
0.0019034401
0.0018916418
0.0018918596
0.0018947831
0.001903773
0.0019033413
0.0021120332
0.0022514429
0.0019764636
0.0018836893
0.0018981235
0.0018928305
0.0018926211
0.0018838921
0.0018877048
0.001901995
0.0020263383
0.0081438527
0.025819772
0.031160898
0.016462525
0.0031629697
0.0018952099
0.0018922161
0.0018866703
0.0018815935
0.001893128
0.0019577773
0.012623082
0.056801316
0.094488703
0.1028615
0.078347783
0.03312784
0.0029304239
0.0019063079
0.001888258
0.001885437
0.0019037054
0.0057049404
0.048299599
0.10544317
0.14526093
0.1534462
0.12858976
0.077637603
0.021525332
0.0020667672
0.0018983116
0.0018924752
0.0020180774
0.01920979
0.072058518
0.11379362
0.15299919
0.16374401
0.14511981
0.098153896
0.044004317
0.0046998873
0.0019129159
0.0018966498
0.0027418815
0.030964807
0.078196984
0.11168887
0.14092671
0.15527428
0.13873461
0.098839259
0.055074042
0.011214379
0.0019443075
0.0018951024
0.0048159171
0.037366614
0.077682557
0.11052594
0.13500788
0.14043059
0.12431785
0.094833773
0.058373792
0.017065503
0.0020943373
0.0018904455
0.0075560571
0.040353522
0.074872266
0.10099807
0.11758797
0.12114506
0.11065331
0.088955455
0.058509588
0.021314808
0.0025290259
0.0018859751
0.010058537
0.041502762
0.07109587
0.092039411
0.10404117
0.10648686
0.099172014
0.082633004
0.057256265
0.024361893
0.0033753856
0.001886181
0.012166696
0.041742889
0.067234623
0.084507754
0.093899407
0.095758599
0.090149406
0.076863652
0.05544089
0.026471647
0.0045200735
0.0018998483
0.014143853
0.041520065
0.063687728
0.078353386
0.086146295
0.087670326
0.083056505
0.071911766
0.053503765
0.027896172
0.0058821869
0.0019456626
0.015965245
0.041057439
0.060567365
0.073324181
0.080043715
0.081352825
0.07738729
0.067740113
0.05164453
0.028841569
0.00737615
0.0020618052
0.017552117
0.040485227
0.057869886
0.069169256
0.075105637
0.076262379
0.072760674
0.064231946
0.049942226
0.02947246
0.0088951577
0.0023119845
0.018914254
0.0398952
0.05555043
0.065688593
0.071022329
0.072063292
0.068915156
0.061260434
0.048429733
0.02990044
0.010364412
0.0027927827
0.020048609
0.039348775
0.05355132
0.06275816
0.067622866
0.068574883
0.065699369
0.058733799
0.047099944
0.030221814
0.011730491
0.003598138
0.021038204
0.0389082
0.05193547
0.060467832
0.06502085
0.065916254
0.063216972
0.056727698
0.046008019
0.030541857
0.012973418
0.001997415
0.0019971198
0.0019971079
0.0019971073
0.0019971067
0.001997106
0.0019971058
0.0019971063
0.001997107
0.0019971074
0.0019971084
0.0019971402
0.0019735977
0.0019707121
0.0019705516
0.00197049
0.0019704618
0.0019704482
0.0019704457
0.0019704554
0.0019704767
0.0019705144
0.0019706094
0.0019708504
0.0019522646
0.0019498637
0.0019497279
0.0019496195
0.0019495658
0.0019495491
0.0019495476
0.0019495578
0.0019495924
0.0019496673
0.0019497937
0.0019498834
0.001933654
0.001931507
0.0019314155
0.001931334
0.0019313583
0.0019314514
0.001931477
0.0019314099
0.001931339
0.0019313689
0.0019314599
0.0019314908
0.0019173276
0.001915444
0.0019154723
0.0019156929
0.00191633
0.0019172189
0.0019173672
0.0019168421
0.001915941
0.0019155476
0.0019154469
0.0019154046
0.0019032376
0.0019018596
0.00190253
0.001904288
0.0019084172
0.0019169593
0.0019166289
0.0019138598
0.0019054256
0.0019032422
0.0019021209
0.001901703
0.0018918891
0.0018917933
0.0018951666
0.0019052307
0.0019225061
0.0022552515
0.0024858598
0.0020230154
0.0018991226
0.001898923
0.0018930932
0.0018911297
0.0018845606
0.0018876615
0.001902785
0.002112842
0.010655046
0.031273018
0.036858258
0.020843124
0.0039538263
0.0019061517
0.0018927074
0.0018854304
0.0018831595
0.0018931747
0.0019924371
0.016299806
0.063941018
0.10305275
0.11157031
0.086386534
0.038864847
0.0040037568
0.0018985697
0.0018872097
0.0018884871
0.0019050428
0.0074626883
0.054155332
0.11326613
0.15368981
0.16127573
0.13695524
0.084606056
0.025824335
0.0021799019
0.0018968822
0.0018970944
0.0020911961
0.022630672
0.077463974
0.12370161
0.1639548
0.1697955
0.15717661
0.10429351
0.048829867
0.0060118301
0.0019070655
0.00190179
0.0032141278
0.034520656
0.082268437
0.11963923
0.15542025
0.16100207
0.15390434
0.10936899
0.05909455
0.013454055
0.0019353648
0.0018996737
0.0059198903
0.040561424
0.081147227
0.11500877
0.14055941
0.14551987
0.12956079
0.098639324
0.061730456
0.019667645
0.0021121286
0.0018951407
0.0088425792
0.043130127
0.077755808
0.10421886
0.12121019
0.12478886
0.11408678
0.091959698
0.061371211
0.023893166
0.0025627309
0.001894
0.011452505
0.043918329
0.073485296
0.094455338
0.10652131
0.10897347
0.10161255
0.08502519
0.059695017
0.026741427
0.0033846534
0.0019066439
0.013848675
0.043853597
0.069243022
0.086432182
0.095779957
0.097628408
0.092042705
0.078829112
0.057532656
0.028606286
0.0045667593
0.0019577507
0.015922462
0.043373793
0.06541003
0.079962087
0.087685606
0.089194052
0.084622236
0.073577609
0.055317833
0.029813301
0.0059480622
0.0020747768
0.017708636
0.042695631
0.062072533
0.074715101
0.08136494
0.082659071
0.078735796
0.069188158
0.053236993
0.03056343
0.0073175032
0.0023064465
0.019235001
0.041950267
0.05920521
0.070398271
0.076272649
0.077416342
0.073951942
0.065513019
0.0513569
0.031041318
0.0086244838
0.0027079502
0.020471356
0.041217018
0.056746241
0.066791556
0.072072376
0.073102315
0.069985779
0.062407876
0.049696665
0.031333847
0.0099628421
0.0033419041
0.021448935
0.040538781
0.054631524
0.063761704
0.068583172
0.069526198
0.066676308
0.059773458
0.048238981
0.031516796
0.011265111
0.0042244307
0.02225046
0.039974036
0.052927035
0.061403319
0.065924053
0.066812681
0.064132381
0.057689489
0.047040932
0.03167677
0.012381259
0.0019971314
0.0019971078
0.0019971074
0.001997107
0.0019971064
0.0019971062
0.0019971065
0.0019971071
0.0019971075
0.0019971085
0.0019971749
0.0019707712
0.0019705705
0.001970501
0.0019704723
0.0019704576
0.0019704547
0.0019704646
0.0019704864
0.0019705269
0.0019706421
0.0019734782
0.001949885
0.0019497577
0.0019496433
0.0019495848
0.0019495612
0.0019495574
0.0019495719
0.0019496129
0.0019496921
0.0019498174
0.0019522284
0.0019315188
0.00193144
0.0019313511
0.0019313416
0.0019313977
0.0019314113
0.0019313688
0.0019313413
0.0019313899
0.0019314651
0.0019336116
0.0019154603
0.0019154674
0.0019156129
0.0019160164
0.0019167774
0.00191685
0.0019163681
0.0019157826
0.001915509
0.0019154222
0.0019172875
0.0019018587
0.0019023419
0.0019037854
0.0019057048
0.001915403
0.0019139228
0.0019089417
0.0019046542
0.0019028764
0.0019019717
0.0019032895
0.0018916584
0.0018940647
0.0019038269
0.0018939426
0.0019780277
0.0020243333
0.0019164734
0.0019051519
0.0018969841
0.0018924478
0.0018922639
0.0018870822
0.0018957714
0.0019482896
0.0048344969
0.016614732
0.020935246
0.01031277
0.0023663568
0.0019016908
0.0018903815
0.0018858322
0.0018917807
0.0019154601
0.0077894523
0.044160567
0.078695823
0.086543274
0.063558787
0.023215913
0.0022774038
0.0019031011
0.0018864774
0.0019083712
0.0033393571
0.037699996
0.091091615
0.1290197
0.13713148
0.11286359
0.064837681
0.014575495
0.0019626403
0.001895498
0.0019348353
0.013308373
0.062000446
0.11013664
0.14565167
0.15736865
0.13763934
0.087177628
0.035356321
0.0030012115
0.0019078465
0.002250309
0.024378299
0.070175343
0.10704281
0.13921188
0.15404543
0.13535713
0.090132841
0.047480552
0.0077062104
0.0019221469
0.0032960702
0.031262151
0.071044683
0.10247936
0.12454292
0.12964049
0.11484453
0.087698204
0.052026257
0.01272815
0.0019882552
0.0052248745
0.034981189
0.069298912
0.094941443
0.11077273
0.11414072
0.1041449
0.083193444
0.053082165
0.01687584
0.0022099784
0.007510609
0.03679641
0.066425443
0.087362634
0.099243535
0.10164592
0.094414687
0.077976577
0.052600135
0.020092529
0.0027297184
0.0095832767
0.037605782
0.063278899
0.080726044
0.090198018
0.092065187
0.086407238
0.073008091
0.051425463
0.022565693
0.0036385213
0.011388817
0.037872345
0.060281299
0.075171439
0.083093024
0.08463896
0.079944945
0.068631409
0.050005154
0.024378076
0.0048709722
0.013119648
0.037826342
0.057585511
0.070566282
0.077416743
0.07874923
0.074702849
0.06488349
0.048561662
0.025675405
0.0062777534
0.014757251
0.037598316
0.055223671
0.066730972
0.072785605
0.073963349
0.070389705
0.061701541
0.047196128
0.026579139
0.0077418279
0.016211454
0.037293019
0.053180868
0.063502102
0.068936978
0.069995841
0.06678637
0.058993138
0.045963019
0.027248564
0.0091923845
0.017509508
0.037001925
0.051413514
0.060771818
0.065718977
0.066685439
0.063759848
0.056679992
0.044876834
0.027794612
0.010575598
0.0187524
0.03680034
0.049978124
0.058621294
0.063235086
0.064140925
0.061404281
0.054830426
0.043988698
0.02837107
0.011881053
0.0019972053
0.0019971087
0.0019971075
0.0019971073
0.001997107
0.0019971069
0.0019971071
0.0019971074
0.0019971076
0.0019971122
0.0019973263
0.0019734946
0.0019706342
0.0019705336
0.001970497
0.0019704819
0.0019704795
0.0019704897
0.0019705127
0.0019705682
0.0019707343
0.0019735369
0.0019522491
0.001949822
0.0019497047
0.0019496353
0.0019496033
0.001949598
0.0019496188
0.0019496675
0.0019497571
0.0019498625
0.0019522515
0.0019336392
0.0019314831
0.0019314037
0.0019313543
0.0019313476
0.0019313496
0.0019313506
0.0019313781
0.0019314437
0.0019315029
0.0019336519
0.0019173021
0.0019154587
0.00191551
0.001915689
0.0019158845
0.0019159618
0.0019157979
0.0019155885
0.0019154755
0.001915464
0.0019173484
0.0019032187
0.0019020514
0.0019027765
0.0019042069
0.0019045966
0.0019054593
0.0019046785
0.0019034184
0.001902344
0.0019019297
0.001903335
0.001891939
0.0018926439
0.0018961527
0.0019064704
0.0018839706
0.0018989277
0.0019051945
0.0018999378
0.0018940741
0.0018919071
0.0018921445
0.0018849064
0.0018907114
0.0019041726
0.002012309
0.0031992789
0.0039849984
0.0023690753
0.0019117086
0.0018964277
0.0018877308
0.0018851242
0.0018843895
0.0019033192
0.0021064532
0.01187419
0.0334731
0.03904926
0.02325702
0.0040895348
0.0019115919
0.0018932631
0.0018842075
0.0018915307
0.0019605377
0.010734052
0.047551021
0.078101884
0.084831497
0.064877502
0.027667463
0.00289064
0.0019108042
0.0018900872
0.0019026492
0.0030518885
0.030499374
0.071619865
0.098558556
0.10447785
0.087203362
0.051849632
0.011738515
0.0019521126
0.0018991372
0.0019112875
0.0078691495
0.043320081
0.077949855
0.099124008
0.10952246
0.090156351
0.06197548
0.023048532
0.0023363288
0.0019041215
0.0019221229
0.013238703
0.048572247
0.077548743
0.095050197
0.098743585
0.08771732
0.064271097
0.030444025
0.0036867617
0.0019028506
0.0019807916
0.017770806
0.050163972
0.074786213
0.089112863
0.092039763
0.083210188
0.063606849
0.034391719
0.0060722166
0.0019014892
0.0021615206
0.021285426
0.050096444
0.071029558
0.082749218
0.085084962
0.077989959
0.061632276
0.03633457
0.0086986095
0.0019159011
0.0025798732
0.023760295
0.04925507
0.067176226
0.076952959
0.078874749
0.073018637
0.059201485
0.037228914
0.010950826
0.0019759012
0.0033420511
0.025470468
0.048101609
0.0636324
0.07198315
0.073614004
0.068640274
0.056759609
0.037539893
0.012933962
0.002136589
0.0044586381
0.026669163
0.046872933
0.060514278
0.067799059
0.069218457
0.064891504
0.054496685
0.037522764
0.014860563
0.002478549
0.0057646886
0.02753275
0.045686786
0.057823054
0.064281871
0.065539136
0.061709189
0.052479495
0.037329932
0.016592704
0.0030695909
0.0071601701
0.02816331
0.044612138
0.055515317
0.061303605
0.062430996
0.059000626
0.050723491
0.037068581
0.018073316
0.0038955258
0.0085693633
0.028686892
0.04367173
0.053531774
0.05877184
0.059794373
0.056687362
0.049200468
0.036829296
0.019327972
0.0049184186
0.0099635785
0.029255423
0.0429117
0.051931108
0.056761953
0.057708875
0.054837782
0.047960134
0.036682387
0.020541767
0.0060572444
0.0019974289
0.00199713
0.0019971078
0.0019971076
0.0019971075
0.0019971075
0.0019971076
0.0019971077
0.0019971087
0.0019971591
0.0019736028
0.0019707965
0.0019706136
0.001970548
0.0019705235
0.0019705204
0.0019705352
0.0019705732
0.0019706551
0.0019734571
0.0019522942
0.0019498832
0.0019498055
0.0019497283
0.0019496856
0.0019496786
0.0019497067
0.0019497659
0.0019498359
0.0019522451
0.0019336844
0.0019315145
0.001931478
0.0019314277
0.0019313946
0.0019313883
0.0019314122
0.0019314568
0.0019314953
0.0019336207
0.0019173581
0.0019154816
0.001915477
0.0019155115
0.0019155663
0.0019155807
0.0019155415
0.0019154922
0.0019154599
0.0019172357
0.0019032669
0.001901939
0.0019021551
0.0019026343
0.0019031674
0.0019032965
0.0019029202
0.0019023647
0.0019019451
0.001903079
0.0018918824
0.0018918218
0.0018930487
0.0018954242
0.0018982767
0.001899026
0.0018969927
0.0018941073
0.0018920761
0.0018916894
0.0018843888
0.001887238
0.0018920428
0.00190348
0.0018960356
0.0019067401
0.0019020747
0.001896466
0.0018885566
0.0018845474
0.001882413
0.0018910908
0.0019068159
0.001990625
0.0029808046
0.0040583315
0.0022801305
0.0019116862
0.0018960827
0.0018841252
0.0018864416
0.0019042463
0.0020129454
0.0076222881
0.021858336
0.025994733
0.014600553
0.0028914451
0.0019127042
0.0018918222
0.0018932862
0.0019185422
0.0041272525
0.023894905
0.044402036
0.049014838
0.035370829
0.011725448
0.0021051049
0.0019040628
0.0018969418
0.0019971418
0.01053057
0.036590986
0.055411263
0.059246354
0.047488713
0.023020111
0.0033380604
0.0019162896
0.0018947201
0.0023420642
0.017110234
0.042728986
0.058643734
0.061851486
0.052028723
0.030417797
0.0063941136
0.001943538
0.0018893252
0.0032769878
0.022034863
0.045089957
0.058728718
0.061470728
0.053082617
0.034367161
0.0098119094
0.0020442251
0.0018841936
0.0049573813
0.025263144
0.045678917
0.057434519
0.059777033
0.052602471
0.036311852
0.013134848
0.0023344797
0.0018828726
0.007023818
0.027344641
0.045413924
0.055587617
0.057600975
0.051429158
0.037211203
0.016072413
0.0030307792
0.0018875411
0.0089597834
0.028735275
0.044741297
0.053625954
0.055375812
0.050010567
0.037527602
0.018484639
0.004265476
0.0019255045
0.010724235
0.029665216
0.043906342
0.051747491
0.053287136
0.048569115
0.037514625
0.020332158
0.0059095373
0.0020235203
0.012447679
0.030267619
0.043038696
0.050030043
0.051401071
0.047205416
0.037324723
0.021739699
0.0076177806
0.0022304383
0.014108299
0.030658574
0.042219384
0.048505558
0.04973621
0.045973661
0.037066051
0.022841048
0.0092548982
0.0026307827
0.015620139
0.030978963
0.041495695
0.047166199
0.048274871
0.044888388
0.036828935
0.023790475
0.01080126
0.0032893657
0.017074892
0.031358365
0.040918908
0.046066692
0.047073997
0.04400097
0.036683559
0.024756082
0.012283129
0.0019973617
0.0019971347
0.0019971102
0.0019971085
0.0019971085
0.0019971086
0.0019971123
0.001997159
0.0019973335
0.001973539
0.0019708217
0.0019706614
0.001970627
0.0019706158
0.0019706501
0.0019707406
0.001973459
0.0019735594
0.0019522277
0.0019498888
0.0019498328
0.0019498181
0.0019498059
0.0019498336
0.0019498757
0.0019522492
0.0019522476
0.0019336078
0.0019315186
0.0019314906
0.001931489
0.0019314802
0.0019314915
0.0019315244
0.0019336259
0.0019336214
0.0019172799
0.0019154807
0.0019154562
0.0019154777
0.0019154779
0.0019154608
0.0019154952
0.0019172488
0.0019172679
0.0019031945
0.0019019026
0.0019019461
0.0019021121
0.0019021653
0.001902022
0.0019019702
0.0019031049
0.0019031249
0.0018918144
0.0018916457
0.0018920873
0.0018929043
0.0018931622
0.0018925128
0.001891962
0.0018917244
0.0018915955
0.0018843221
0.0018866569
0.0018885678
0.0018923363
0.0018927708
0.0018904568
0.0018878011
0.001884592
0.0018837473
0.0018823539
0.0018896561
0.00189561
0.0019064287
0.0018970848
0.0019032194
0.0018933468
0.0018841784
0.0018810756
0.0018863958
0.0019013872
0.0019103419
0.0020739691
0.0021858675
0.0019632804
0.0019108884
0.0018918666
0.0018840619
0.0018932643
0.0019121092
0.0022196266
0.0048066019
0.0060684847
0.0030048022
0.0019520369
0.0019040928
0.0018899331
0.0018969307
0.0019499017
0.0041479775
0.011408856
0.01354558
0.0077034427
0.0023343662
0.001916259
0.0018933165
0.0018945827
0.0021592711
0.0078257838
0.017305959
0.019764341
0.012710992
0.0036749948
0.0019432899
0.0018914946
0.0018890183
0.0027429919
0.011248846
0.021545827
0.023992809
0.016862102
0.0060496248
0.0020433867
0.0018866212
0.0018843366
0.0039252654
0.014374566
0.024573481
0.026834824
0.020089105
0.008673589
0.0023322962
0.0018814922
0.0018826516
0.0056122372
0.017046863
0.026658523
0.028690982
0.022568301
0.010927829
0.0030258226
0.0018798035
0.0018990758
0.0074220774
0.019277417
0.028060504
0.029888764
0.02438343
0.012912399
0.0042568312
0.0018871817
0.0019545427
0.0090773286
0.021023734
0.028987189
0.030631834
0.025682117
0.014842295
0.0058989257
0.0019184775
0.0020921575
0.010620896
0.02235152
0.029601073
0.031103832
0.026587763
0.016579341
0.007607179
0.0020057438
0.0023850051
0.012174874
0.023343938
0.030014507
0.031391213
0.027258888
0.018064594
0.0092455599
0.0021925109
0.0029080319
0.013655472
0.024192429
0.03032257
0.031569272
0.02780727
0.019324001
0.010793847
0.0025425469
0.0036580898
0.015128113
0.025082907
0.030631811
0.031724991
0.028385524
0.020539054
0.012276628
0.003121998
0.0019973894
0.0019972661
0.0019971624
0.0019971402
0.0019971749
0.0019973263
0.0019736645
0.0019735356
0.0019734664
0.001970854
0.0019734847
0.0019735418
0.0019523218
0.0019522732
0.0019522431
0.0019498921
0.0019522447
0.0019522624
0.0019336806
0.0019336794
0.0019336487
0.0019315056
0.0019336376
0.0019336706
0.0019173271
0.0019174011
0.0019173706
0.0019154263
0.0019173265
0.0019173772