/*--------------------------------*- C++ -*----------------------------------*\
| =========                 |                                                 |
| \\      /  F ield         | OpenFOAM: The Open Source CFD Toolbox           |
|  \\    /   O peration     | Version:  2406                                  |
|   \\  /    A nd           | Website:  www.openfoam.com                      |
|    \\/     M anipulation  |                                                 |
\*---------------------------------------------------------------------------*/
FoamFile
{
    version     2.0;
    format      ascii;
    arch        "LSB;label=32;scalar=64";
    class       volScalarField;
    location    "150";
    object      omega;
}
// * * * * * * * * * * * * * * * * * * * * * * * * * * * * * * * * * * * * * //

dimensions      [0 0 -1 0 0 0 0];

internalField   nonuniform List<scalar> 
71615
(
9.8512135
9.8563744
8.6192363
8.6177392
7.6294925
7.627598
6.8466751
6.8451287
6.2132729
6.2121059
5.6930101
5.692238
5.2621528
5.2618957
4.905412
4.906071
4.612526
4.6148595
4.3735618
4.3784762
4.1737967
4.1812907
3.995515
4.0038074
3.8285347
3.8354699
3.672254
3.6773326
3.5275959
3.531638
3.3937303
3.3976649
3.2698158
3.2753818
3.1558038
3.1665721
3.0602748
3.0792838
2.9946824
3.036535
2.9791072
3.0395345
3.0264959
3.0814117
9.8530327
9.8429802
9.8406231
9.8402278
9.8408737
9.8448707
9.8566642
8.6164827
8.4797241
8.4749108
8.4732729
8.476488
8.6132049
8.6166232
7.6280895
7.5233928
7.5211345
7.5198657
7.5216992
7.627383
7.6276656
6.8457864
6.7607925
6.7591373
6.7578893
6.7594776
6.845308
6.8454962
6.2128609
6.1422356
6.1404355
6.1390135
6.1408822
6.2122273
6.2127178
5.6931011
5.6336513
5.6314201
5.6297234
5.6320977
5.6921287
5.6930676
5.2628734
5.2130759
5.2105861
5.2085691
5.2114091
5.2615644
5.262904
4.9069868
4.8671815
4.8655725
4.8633943
4.8659918
4.9058054
4.9069862
4.6151613
4.5878212
4.5907943
4.5893298
4.5888407
4.6156019
4.6149212
4.3771606
4.3659452
4.3738586
4.3722332
4.3698274
4.3816758
4.3764005
4.1777957
4.179427
4.1910083
4.2007408
4.1998146
4.1884096
4.1763293
3.9990872
4.0089025
4.1576001
4.2483302
4.0523206
4.0137535
3.9971446
3.8308853
3.8762685
4.2787057
4.4864699
4.0497613
3.8478808
3.8289603
3.6733564
3.8300233
4.5163684
4.875216
4.1418406
3.696408
3.6715453
3.5281431
3.8660704
4.8547247
5.2280685
4.3460137
3.5641708
3.5260803
3.3944477
3.9934057
5.1277464
5.3935096
4.6263709
3.4944986
3.3918075
3.2727631
4.2002756
5.2357937
5.3947202
4.8472843
3.5400119
3.2673358
3.1613785
4.4113918
5.1891432
5.268859
4.929636
3.7184623
3.1524747
3.0892486
4.5324592
5.0389638
5.0686412
4.8799632
3.9328497
3.0488984
3.0680666
4.5324407
4.8322456
4.8454503
4.7442758
4.0776172
2.9849968
3.1147448
4.440499
4.6106981
4.6214662
4.5602726
4.1182649
2.9737452
3.2218604
4.2977431
4.4026748
4.4083424
4.3674429
4.0783636
3.0230151
9.8498643
9.8401475
9.8395935
9.8395724
9.8395766
9.8395756
9.839642
9.8408434
9.8534997
8.6143013
8.4720045
8.4677676
8.4659746
8.4656667
8.4666401
8.4697681
8.4785881
8.615396
7.6269213
7.5195545
7.5167539
7.5145394
7.5140468
7.5154751
7.5185191
7.5230826
7.6269574
6.8447056
6.7579968
6.75559
6.7534266
6.7528789
6.7543918
6.7571245
6.7605962
6.8445975
6.2118385
6.1393293
6.1357757
6.1327288
6.1319541
6.1340779
6.1378114
6.1420583
6.2117212
5.6922068
5.6301762
5.6248745
5.6203985
5.619266
5.6223589
5.6277264
5.6335735
5.6920622
5.2623226
5.2091904
5.2029195
5.1976224
5.1962834
5.1999806
5.2061677
5.2133725
5.2619417
4.9072361
4.8642462
4.8614411
4.8602723
4.8596526
4.8616007
4.8626352
4.8684066
4.9060899
4.6168304
4.5894741
4.6076171
4.5758508
4.5924835
4.6072065
4.5955247
4.5906995
4.6141115
4.3808422
4.3771402
4.4598535
5.0915225
5.3761447
4.7239533
4.393696
4.3710359
4.3757229
4.1835261
4.1987505
5.2073092
7.0936874
7.4786153
6.3459947
4.450547
4.1885143
4.1758202
4.0061178
4.227777
6.6103389
7.8127376
7.9729817
7.4407919
5.1962771
4.0198487
3.9967608
3.838149
4.5706282
7.0781641
7.654118
7.7373278
7.4717047
6.1515599
3.8975348
3.8284847
3.6805784
5.2010243
6.9745629
7.3401372
7.4007522
7.2119716
6.4948406
3.8922377
3.6707365
3.5357575
5.6390958
6.7229789
6.9795212
7.0208551
6.8893752
6.40188
4.0167922
3.5250667
3.4066125
5.7455609
6.4096349
6.5758165
6.6010197
6.518827
6.181656
4.2609818
3.3908265
3.2989718
5.6084116
6.0593632
6.157935
6.1711624
6.1250509
5.9131169
4.5650267
3.2669683
3.2584905
5.3936184
5.6997234
5.7524811
5.7580015
5.7358592
5.6150893
4.7747612
3.1563901
3.3441528
5.160791
5.3520472
5.3740732
5.3740745
5.3688436
5.3055818
4.8211303
3.0673382
3.5377883
4.9233121
5.0275131
5.0280292
5.0242099
5.0309373
5.0049905
4.7270984
3.03881
3.7254455
4.6822415
4.7299111
4.714992
4.7087898
4.7234582
4.723564
4.5594748
3.0866552
3.8194115
4.4481426
4.4583017
4.4335194
4.4261475
4.4452833
4.4644477
4.376042
3.2115472
9.8530291
9.8401461
9.839559
9.8395432
9.8395346
9.8395332
9.8395379
9.8395511
9.8395879
9.841112
9.850939
8.6164695
8.4719923
8.4662655
8.4637664
8.4627575
8.4625795
8.4631436
8.4647482
8.4686583
8.4796077
8.6175272
7.628077
7.5195551
7.5150482
7.5110451
7.5088351
7.5083871
7.5097292
7.512813
7.5175499
7.522964
7.6287903
6.8457814
6.7579959
6.7540196
6.7490981
6.7455715
6.7447962
6.7470551
6.7515152
6.7563053
6.7602967
6.8462032
6.2128672
6.1393182
6.1336225
6.1265679
6.121192
6.1199488
6.1234854
6.130082
6.1368058
6.1418198
6.213075
5.6930985
5.6301498
5.6217731
5.6115464
5.6038346
5.6020125
5.6070594
5.6166468
5.6264181
5.6334613
5.6931163
5.2628448
5.2091501
5.1992791
5.1878202
5.1815342
5.1799145
5.1832733
5.1934843
5.2047701
5.2132753
5.2625428
4.9069339
4.8642043
4.8598264
4.8636333
4.8383395
4.8537133
4.8605063
4.8602716
4.8621316
4.8679209
4.9059383
4.6151131
4.5894596
4.6131389
4.9338483
6.7589154
7.2542546
5.7777539
4.6329898
4.5983232
4.5891012
4.6127504
4.3771431
4.3771886
4.7339782
8.0669829
9.547858
9.7583066
9.058234
6.3056811
4.3961767
4.367232
4.3727816
4.177846
4.1989306
6.7123785
8.985977
9.5848603
9.702307
9.3550594
8.3164406
4.6742013
4.1823776
4.1715865
3.9991993
4.2321477
7.7091588
8.6357297
9.0300432
9.1124373
8.8675436
8.3053669
5.9227989
4.0194401
3.992345
3.8310352
4.5846507
7.5908431
8.1930161
8.5070067
8.5754368
8.3751507
7.9451835
6.7486773
3.8539949
3.8251041
3.6735234
5.2211318
7.2988749
7.7393502
7.9505156
7.9921829
7.8637296
7.559188
6.8063827
3.7828924
3.6687948
3.5283078
5.653889
6.9568405
7.2394595
7.3465608
7.3641633
7.304538
7.1299332
6.6187995
3.8018707
3.5242145
3.3946406
5.7538331
6.5705613
6.7230356
6.7542819
6.7558566
6.7439182
6.6709461
6.3491794
3.9242336
3.3904324
3.2731752
5.6137327
6.1654285
6.2255601
6.2091977
6.2014346
6.2182161
6.2129469
6.0251339
4.1363703
3.2660884
3.1622084
5.398159
5.765818
5.7666016
5.7229299
5.7102666
5.7427882
5.7787105
5.6810583
4.3801937
3.1504502
3.091598
5.1645876
5.3888946
5.3529827
5.2950878
5.2802023
5.3203922
5.3796872
5.3445791
4.5339877
3.0467378
3.0728231
4.9268988
5.0430927
4.9845725
4.9202817
4.9046703
4.9478657
5.0195097
5.0285469
4.5514858
2.965817
3.1226826
4.6843318
4.7301135
4.6577063
4.5915287
4.5760218
4.6195697
4.6970626
4.7365158
4.4624312
2.9225156
3.2318937
4.4495602
4.4479856
4.3688249
4.3043139
4.2895909
4.3313685
4.4095664
4.4685664
4.317283
2.9469974
9.8429803
9.8395934
9.839543
9.839526
9.8395176
9.8395159
9.8395201
9.839532
9.839555
9.8397076
9.8482465
8.4797234
8.4677602
8.4637583
8.4620105
8.4611925
8.4610372
8.4615181
8.4627361
8.4653091
8.4706924
8.614894
7.5233849
7.5167356
7.5110277
7.5070489
7.5047214
7.5042393
7.5056783
7.5088457
7.5136858
7.5182325
7.6278118
6.7607659
6.7555509
6.7490673
6.7424507
6.7379534
6.7369697
6.7398454
6.7456138
6.7525234
6.756531
6.845683
6.1421806
6.1357054
6.1265175
6.1161877
6.1084674
6.1067319
6.1117612
6.1212847
6.1314882
6.1376375
6.2127274
5.6335624
5.6247733
5.6114748
5.5967878
5.5852373
5.5826321
5.5903858
5.6039147
5.6186519
5.6282268
5.6929737
5.212966
5.2028039
5.1877045
5.1777143
5.1651357
5.1583277
5.1766958
5.1798336
5.1957243
5.2070746
5.2631343
4.8670769
4.8614077
4.8634748
4.9289461
5.8381119
6.3016817
5.2453719
4.8393628
4.8601797
4.8625464
4.9086698
4.5877895
4.6085722
4.9389401
8.5927103
10.367512
10.63257
9.7517175
6.681066
4.5968751
4.5908947
4.6201297
4.3661614
4.4637894
8.0907014
10.281297
11.121216
11.297268
10.77989
9.5343723
5.5060733
4.3844892
4.387571
4.1800583
5.2346732
8.9963816
10.046502
10.787124
10.970473
10.457875
9.5753223
7.778765
4.2391058
4.1936832
4.0092308
6.6446557
8.6416388
9.3760792
9.8759717
10.105562
9.7505227
9.0221344
8.1074099
4.4191248
4.015471
3.8799014
7.0959454
8.1963899
8.7859925
9.2794114
9.4054702
9.0509024
8.4992904
7.8108932
4.9118239
3.8462077
3.8375017
6.9858776
7.7412039
8.1184023
8.3646648
8.4195492
8.2568698
7.9459582
7.4599694
5.4971611
3.6919826
3.8783331
6.730975
7.240577
7.4169741
7.4923056
7.5054571
7.4611566
7.3455258
7.0635513
5.7887049
3.5527542
4.0111519
6.4144507
6.7238339
6.7610155
6.7399486
6.7316458
6.7502064
6.7554781
6.630939
5.8049928
3.4531371
4.2222557
6.0624935
6.2262047
6.1794168
6.1095031
6.0911932
6.1400547
6.211566
6.1926345
5.6411984
3.408285
4.4320982
5.7022518
5.7671662
5.6740854
5.5822199
5.559936
5.62153
5.7258068
5.7718855
5.4155428
3.4600999
4.5487135
5.3542273
5.3534986
5.2373585
5.1380133
5.1147989
5.1800444
5.297946
5.3818218
5.1712555
3.6008013
4.543616
5.0293636
4.9850455
4.8592855
4.7599737
4.7373119
4.8016573
4.9227543
5.0276133
4.925639
3.7569667
4.4478775
4.7313473
4.6581329
4.5304257
4.4349059
4.413475
4.4747529
4.5934623
4.7092377
4.6796001
3.8619109
4.3024355
4.4594348
4.3692053
4.2458707
4.1574462
4.1378728
4.1941271
4.3057082
4.4241338
4.4430812
3.8853003
9.8511915
9.8406235
9.8395722
9.8395342
9.8395174
9.8395088
9.8395066
9.8395111
9.8395223
9.8395447
9.8396142
9.8424942
8.6191949
8.4749076
8.4659632
8.4627386
8.4611817
8.4603913
8.4602358
8.4607116
8.4618481
8.4640158
8.4692395
8.6120449
7.6294566
7.5211199
7.5145118
7.5087977
7.5046989
7.5022039
7.5016795
7.5032389
7.5065783
7.5114292
7.5179852
7.6272253
6.8466368
6.759095
6.753368
6.7455039
6.7379124
6.7327029
6.7315624
6.7349014
6.7415549
6.7495937
6.7566196
6.8450812
6.2132305
6.1403507
6.1326257
6.1210837
6.108401
6.0991552
6.097127
6.1030419
6.1146644
6.1272369
6.1370387
6.2118189
5.6929559
5.6312922
5.6202527
5.6036891
5.5851472
5.5715391
5.5696312
5.5761145
5.5947025
5.6124671
5.6265183
5.6916645
5.2620889
5.2104461
5.1974739
5.1814354
5.1649865
5.1219374
5.1429599
5.1080954
5.183376
5.1887958
5.2045947
5.2615464
4.9053647
4.8654818
4.8602649
4.8393714
5.8474965
8.3903762
8.9049929
7.366744
5.0050098
4.865353
4.8612312
4.9073972
4.612551
4.5909118
4.5769234
6.7975824
10.378694
11.527245
11.71707
11.107132
9.0450342
4.8982483
4.5940669
4.6206496
4.3737273
4.3742117
5.1160124
9.5738622
11.139352
12.055547
12.213859
11.679012
10.463747
7.6926493
4.3965205
4.3919015
4.1741291
4.1915586
7.1361073
9.6003316
10.67102
11.752906
11.962607
11.54317
10.18337
8.8656193
4.7369378
4.1996079
3.9959465
4.1647749
7.8335835
9.0414506
9.8875981
10.901562
11.340515
10.802392
9.483234
8.5717636
5.7161646
4.0289341
3.8289986
4.2933323
7.6659928
8.5146862
9.286672
10.025454
10.155021
9.7000553
8.8741581
8.1421442
6.4353604
3.8737691
3.6727241
4.5392613
7.3485913
7.9557947
8.3689576
8.6808212
8.7431166
8.5444937
8.1663528
7.7010617
6.6086258
3.7740542
3.5280622
4.8802535
6.9854757
7.3502694
7.4950005
7.5656772
7.5773463
7.5354826
7.4329383
7.2140943
6.4768912
3.7641599
3.3942074
5.149797
6.5802289
6.7569878
6.7417489
6.694211
6.6803992
6.714992
6.7578585
6.7088658
6.2291774
3.9066509
3.270302
5.2512362
6.16135
6.2112433
6.1107705
6.0106468
5.986043
6.0534997
6.1661503
6.2190969
5.9357241
4.1298877
3.1565605
5.1995534
5.7551739
5.7245324
5.5831535
5.4634557
5.4353507
5.5141594
5.6560696
5.7652137
5.623734
4.319591
3.0618549
5.0460333
5.3762414
5.2963812
5.138728
5.0153978
4.9871755
5.0672373
5.2176249
5.355239
5.3087281
4.4114944
2.9977145
4.8374436
5.0298039
4.9213481
4.7605377
4.6410037
4.6141239
4.6909465
4.8394836
4.9895058
5.0039134
4.4034436
2.985476
4.6154158
4.7164795
4.5924198
4.4353619
4.3228691
4.2979012
4.369639
4.5114048
4.6645107
4.717963
4.3239969
3.0362558
4.4060099
4.4347875
4.3050734
4.1578272
4.0555387
4.0330786
4.0978656
4.2282953
4.3767326
4.4560515
4.2050295
9.8565125
9.8402282
9.8395762
9.8395326
9.8395154
9.8395065
9.8395042
9.8395089
9.8395202
9.8395425
9.8396123
9.8414521
8.6177077
8.4732715
8.4656505
8.4625533
8.4610191
8.4602297
8.4600722
8.4605495
8.4616798
8.4637892
8.4686783
8.4811387
7.627569
7.5198527
7.5140131
7.5083373
7.5042009
7.5016632
7.5011267
7.5027164
7.5061047
7.510962
7.5174128
7.5232169
6.8450992
6.7578481
6.7528117
6.7447085
6.7368992
6.7315299
6.7303508
6.7337957
6.7406542
6.7489114
6.756117
6.760395
6.2120691
6.138929
6.1318401
6.1198103
6.1066184
6.0970733
6.0949812
6.101087
6.1131255
6.1262317
6.1364009
6.1418461
5.6921723
5.6296013
5.619112
5.6018338
5.5824733
5.5695676
5.5680239
5.573894
5.5923369
5.6110143
5.6256812
5.6333055
5.2618376
5.2084469
5.1961416
5.1798664
5.1579636
5.1430914
5.1794638
5.1207469
5.1776133
5.1873651
5.2037371
5.2126221
4.9060422
4.8633527
4.8597098
4.8551576
6.3226324
8.9167191
9.439935
7.9040084
5.1286798
4.8642334
4.861242
4.8661999
4.6149509
4.589567
4.5940027
7.2930654
10.649115
11.724586
11.901898
11.322583
9.441021
5.0606772
4.5972353
4.5856313
4.3787487
4.3727929
5.406827
9.7860098
11.323563
12.227417
12.347536
11.869126
10.634792
8.1070874
4.4318406
4.3609399
4.1817193
4.2029627
7.5151337
9.7247188
10.94642
11.985785
11.875768
11.87014
10.334178
9.0169923
4.9642493
4.1709898
4.0042768
4.2553867
7.9920223
9.1294536
10.132226
11.36884
11.134362
11.339383
9.828436
8.6555171
6.0993436
4.007093
3.8359081
4.4996088
7.7501418
8.5896007
9.4237029
10.169614
10.238832
9.8641313
8.9684381
8.2075363
6.6977074
3.838487
3.6777664
4.8936893
7.4113882
8.0030398
8.4307715
8.750853
8.8052562
8.6122373
8.2154151
7.7468734
6.7633491
3.7410465
3.5320907
5.2453782
7.029443
7.3720201
7.5123542
7.5815124
7.5913616
7.5510775
7.4493158
7.2402469
6.57956
3.7057517
3.3981484
5.4077076
6.6077092
6.7615118
6.736064
6.6828177
6.6674989
6.7053586
6.7552089
6.7198923
6.3023836
3.742832
3.2759911
5.405295
6.1763644
6.2055535
6.0941661
5.9875626
5.961498
6.0327591
6.1535767
6.2200902
5.9839646
3.8602246
3.1672488
5.2758984
5.7620564
5.7133223
5.5620262
5.436371
5.4069723
5.4893532
5.638875
5.760226
5.6540908
4.0361532
3.0810804
5.0738602
5.3772554
5.2825177
5.1163249
4.9878975
4.9585853
5.0417384
5.1987356
5.3468636
5.3243555
4.1944137
3.0398161
4.849562
5.0267321
4.9064639
4.7384632
4.6146567
4.5868724
4.6663023
4.8204448
4.9792763
5.0102395
4.2696761
3.044529
4.6252017
4.7108219
4.577442
4.4143696
4.2983085
4.2725905
4.346514
4.4930025
4.653398
4.7192397
4.2514836
3.0879817
4.4111029
4.4278229
4.2907499
4.138598
4.0334069
4.0103381
4.0769066
4.2112037
4.3655524
4.4544558
4.1641143
9.8408737
9.8395751
9.8395373
9.8395196
9.8395107
9.8395086
9.8395131
9.8395249
9.839548
9.8396234
9.8431961
8.4764854
8.4666243
8.4631202
8.4615035
8.4607037
8.4605461
8.4610218
8.4621822
8.4644788
8.4702653
8.6127718
7.5216871
7.5154434
7.5096848
7.5056435
7.5032188
7.5027088
7.5042165
7.5074798
7.5123104
7.5187551
7.62726
6.7594398
6.7543297
6.7469762
6.7397796
6.7348618
6.7337808
6.7369325
6.7432247
6.7508146
6.7572084
6.8449677
6.1408018
6.1339743
6.1233609
6.111655
6.1029758
6.1010613
6.1066666
6.1174432
6.1290319
6.137848
6.2116389
5.6319778
5.62222
5.6068766
5.5902685
5.5760373
5.5738505
5.5823941
5.5984963
5.6150841
5.6277463
5.6913943
5.2112894
5.199862
5.1825148
5.1764387
5.1083384
5.1203829
5.1561615
5.1785263
5.1918167
5.2061318
5.2609895
4.8659466
4.8618734
4.8489748
5.2575843
7.3915779
7.9141402
6.2871948
4.8922026
4.8681543
4.86221
4.9060547
4.589015
4.6079178
5.8186183
9.7788966
11.122239
11.329407
10.645749
8.1778123
4.7010274
4.5928828
4.6177278
4.3704471
4.7377165
9.093422
10.807033
11.700333
11.878952
11.318973
10.127651
6.8495282
4.3745783
4.3870536
4.2010666
6.3865978
9.3790099
10.495593
11.584242
11.886949
11.35178
9.938256
8.530967
4.4537483
4.1951507
4.055277
7.4675967
8.8886844
9.7814422
10.855269
11.359581
10.697631
9.2895388
8.4077968
5.0707672
4.0197382
4.0552116
7.4878384
8.3932696
9.0745025
9.7236312
9.8721623
9.4144739
8.7163599
8.0179406
5.8800885
3.8626951
4.1500919
7.2241077
7.878112
8.2717366
8.5566657
8.6175674
8.4262545
8.078322
7.6113802
6.259709
3.7242465
4.3580126
6.8997357
7.3151872
7.4705069
7.5422236
7.554256
7.5097763
7.4019392
7.1602049
6.2767094
3.6510539
4.6403098
6.5271516
6.7516433
6.75628
6.7190239
6.7073006
6.7347154
6.7617939
6.683754
6.0911645
3.6899981
4.8610217
6.1315482
6.223832
6.1441597
6.0560832
6.034005
6.0935347
6.1889741
6.2138048
5.8354623
3.8642292
4.9410632
5.7409004
5.7469024
5.6244073
5.5159106
5.4901909
5.5617683
5.6880414
5.7722906
5.5526717
4.0815006
4.8888161
5.372815
5.3234449
5.1821264
5.0684793
5.042325
5.1162215
5.2532005
5.3695211
5.2664025
4.2390011
4.7506581
5.0340857
4.9501764
4.8032085
4.6918609
4.6667277
4.738391
4.8756585
5.0078265
4.9813009
4.2903533
4.5646197
4.7259763
4.621363
4.4759428
4.3703341
4.346832
4.4142641
4.5465907
4.6849401
4.7088611
4.250751
4.3710356
4.4473198
4.3328056
4.1950793
4.0984215
4.0771581
4.1384415
4.2611646
4.3976998
4.4548762
4.1551681
9.8448707
9.8396417
9.8395507
9.8395315
9.8395221
9.8395201
9.8395249
9.8395381
9.8395626
9.8398569
9.8515516
8.6131961
8.4697603
8.4647376
8.4627303
8.4618493
8.4616849
8.4621897
8.4635234
8.4665703
8.4751013
8.6151373
7.6273611
7.518496
7.5127878
7.5088279
7.5065715
7.506106
7.5074874
7.5105794
7.5154487
7.52128
7.6272674
6.8452633
6.7570727
6.751464
6.7455764
6.741535
6.7406483
6.7432302
6.7484191
6.7544245
6.7592688
6.8451014
6.2121375
6.1377198
6.1299949
6.1212205
6.1146251
6.1131106
6.1174477
6.1255734
6.1341764
6.1406584
6.2122655
5.6919858
5.627601
5.6165255
5.6038458
5.5946358
5.5923152
5.5984977
5.6101031
5.6225479
5.6318274
5.6926003
5.2613916
5.2060482
5.1933702
5.1800891
5.183252
5.1777106
5.1784992
5.1861607
5.2001576
5.2112512
5.2625903
4.9056673
4.8626198
4.8605418
4.8403053
5.0103938
5.133776
4.8926136
4.8603394
4.860088
4.866413
4.9073392
4.6156166
4.5956636
4.6358825
6.7239787
9.0758869
9.4549315
8.1831698
5.092791
4.611111
4.5905692
4.6170248
4.381956
4.3882337
6.3629286
9.5626719
10.483863
10.646187
10.130305
8.4753077
4.6469066
4.3744367
4.3816036
4.1889681
4.4628535
8.3510799
9.5996396
10.204922
10.345892
9.9415771
9.1263591
6.3212394
4.201167
4.1851193
4.0143837
5.2300821
8.3265299
9.0439387
9.5028446
9.8413109
9.293333
8.7224974
7.5130348
4.0837515
4.0078048
3.8485978
6.1838439
7.9628701
8.5172318
8.8895463
8.977534
8.7202351
8.2596951
7.5004292
4.1413256
3.8393374
3.697356
6.5156889
7.5736276
7.9590218
8.1766799
8.2221301
8.0816432
7.7862255
7.2361903
4.3370873
3.6814255
3.5659867
6.4137104
7.141093
7.3545604
7.4396552
7.4539758
7.4045006
7.2665995
6.9107869
4.666079
3.5365976
3.4985555
6.1902922
6.6792897
6.7617228
6.7623091
6.7584043
6.7636707
6.7354151
6.5375685
5.0095717
3.407468
3.549089
5.9202411
6.2190787
6.2159643
6.1691938
6.1557911
6.1903248
6.2281688
6.1435636
5.1935091
3.298067
3.7315422
5.6207117
5.7832205
5.7289791
5.6582234
5.6404371
5.689006
5.7631512
5.7533065
5.1806563
3.2508448
3.9463161
5.3102859
5.3830691
5.3002918
5.2191995
5.1998598
5.2538878
5.3459431
5.383229
5.0389172
3.3017028
4.0885493
5.0087907
5.0221183
4.9245333
4.8406676
4.8212708
4.876152
4.9754675
5.0418663
4.8368397
3.4577364
4.1264081
4.7265047
4.6991182
4.5948464
4.512317
4.4936231
4.5469514
4.647447
4.7318537
4.6207171
3.6167043
4.0846356
4.4667751
4.4112168
4.3068208
4.2290261
4.21169
4.2614389
4.3581907
4.4517745
4.4168205
3.7040382
9.856682
9.840843
9.8395881
9.8395549
9.8395445
9.8395425
9.8395483
9.8395629
9.8396493
9.8423193
8.6166247
8.4785844
8.4686627
8.4653149
8.4640233
8.4638028
8.4644993
8.4665805
8.4707521
8.6124329
7.6276659
7.523069
7.5175464
7.5136861
7.5114336
7.5109758
7.512335
7.5154614
7.5189128
7.6279122
6.8454829
6.760559
6.7562852
6.7525142
6.7495934
6.7489227
6.7508413
6.7544428
6.7574179
6.8458144
6.2126842
6.1419803
6.1367609
6.1314658
6.1272305
6.1262412
6.12906
6.1341927
6.1386232
6.2123772
5.6930035
5.6334523
5.6263495
5.6186117
5.612449
5.6110199
5.6151115
5.6225626
5.6292983
5.6917715
5.2628252
5.2132415
5.2047036
5.1956487
5.1887428
5.1873793
5.1918221
5.200187
5.2082405
5.2606036
4.9069437
4.868363
4.8621571
4.8602296
4.8656767
4.8643359
4.8679503
4.8601327
4.8636428
4.9042794
4.6149911
4.5908865
4.5986597
4.5987957
4.9089979
5.0684015
4.7022319
4.611189
4.5901157
4.6139908
4.3766487
4.3716058
4.3983646
5.5489357
7.7332475
8.1273851
6.8553226
4.6470866
4.380545
4.3808447
4.1767639
4.189322
4.6981686
7.8203302
8.8861997
9.0278047
8.5349731
6.3198709
4.2199894
4.1893206
3.9976703
4.0200514
5.9750102
8.1292723
8.5865416
8.6645571
8.4115933
7.5129878
4.326765
4.0183017
3.8294955
3.9026492
6.7848473
7.8278098
8.1542772
8.2158138
8.0224664
7.500492
4.8799312
3.8561467
3.6720828
3.9032662
6.828006
7.4729263
7.7104184
7.7539252
7.6160333
7.2365906
5.5839915
3.7117635
3.5266369
4.0355705
6.6358203
7.0732969
7.2210389
7.2458434
7.164227
6.9116992
5.9161716
3.5987582
3.3923943
4.2870974
6.361507
6.6381571
6.7139222
6.724148
6.6870321
6.5383586
5.8885816
3.5702587
3.2679743
4.5952209
6.0337868
6.1979584
6.2228053
6.2232653
6.2163466
6.1441566
5.701659
3.6892796
3.1532639
4.7993667
5.6876222
5.7758998
5.7679895
5.7625923
5.7741795
5.753802
5.4711149
3.9259661
3.0502761
4.8373799
5.3498929
5.3849384
5.3573649
5.3486381
5.3709
5.3836688
5.2203168
4.1582186
2.9885732
4.7367693
5.0328402
5.0300837
4.9911592
4.9806193
5.0088463
5.0422271
4.961153
4.2877973
2.9803423
4.5659386
4.739845
4.7112114
4.665815
4.6544272
4.685707
4.7321175
4.7032827
4.2937335
3.0329381
4.3813347
4.4711634
4.4257199
4.3777842
4.3663618
4.39829
4.451968
4.459218
4.213636
9.8534992
9.8411126
9.8397078
9.8396145
9.8396125
9.8396237
9.839857
9.8423157
9.8519839
8.6153752
8.4796098
8.4706984
8.469248
8.4686938
8.4702858
8.475115
8.6124031
8.6157398
7.6269185
7.5229619
7.518234
7.5179904
7.5174301
7.5187854
7.5213045
7.6279055
7.6270776
6.8445447
6.7602881
6.7565293
6.7566225
6.7561336
6.7572462
6.7593029
6.8458109
6.8446728
6.2116524
6.1417954
6.1376334
6.1370411
6.1364136
6.1378907
6.1407003
6.2123916
6.211723
5.6919657
5.6334185
5.6282204
5.6265193
5.6256877
5.6277884
5.6318746
5.6918097
5.6919187
5.2618241
5.2132408
5.2070704
5.2045997
5.2037571
5.2061769
5.2113167
5.2606549
5.2614744
4.9060058
4.867965
4.8625844
4.8612911
4.8613501
4.8622788
4.8665026
4.904346
4.9049497
4.6141584
4.5893076
4.5911098
4.5944529
4.5983811
4.5930027
4.5906905
4.6140727
4.6117472
4.3759643
4.3677249
4.3859237
4.3988473
4.433758
4.374632
4.3745771
4.3809145
4.3715925
4.1762709
4.1831595
4.2447264
4.7558055
4.9751653
4.4544851
4.201418
4.189375
4.17013
3.997344
4.019358
4.4402684
5.7552668
6.1172128
5.0706867
4.0833087
4.018314
3.9907655
3.8290978
3.8580804
4.9575236
6.4664392
6.7120157
5.8804603
4.1388219
3.8561125
3.8235779
3.671354
3.7918431
5.5454409
6.6298075
6.7734867
6.2613072
4.3322142
3.7116236
3.6673393
3.5256845
3.8183462
5.8224303
6.4914853
6.5870464
6.2775629
4.6597781
3.5983787
3.5226087
3.3914816
3.9498264
5.8260049
6.2403829
6.3083226
6.0917857
5.0044656
3.5693688
3.3886964
3.2677597
4.1704151
5.656216
5.9440619
5.9888549
5.8365324
5.1912837
3.6874738
3.2645143
3.1569987
4.414253
5.427934
5.6297495
5.6578632
5.554218
5.1801073
3.9236611
3.1491676
3.0713695
4.5613572
5.1811834
5.313202
5.3272335
5.2679703
5.0385681
4.1560961
3.0472151
3.0473879
4.569941
4.9343184
5.007283
5.0124567
4.9827445
4.8363402
4.2862384
2.9661193
3.1023171
4.4745404
4.6849428
4.7206794
4.7210188
4.7099858
4.6199891
4.2927285
2.9326047
3.2325793
4.3251564
4.4470053
4.4581919
4.455898
4.4557612
4.4163153
4.213006
2.9643488
9.8510167
9.8482466
9.842495
9.8414526
9.8431958
9.8515518
8.6175969
8.6149003
8.6120478
8.4811476
8.6127898
8.6151713
7.6288586
7.6278191
7.6272268
7.5232256
7.6272944
7.6273265
6.8462565
6.8456942
6.8450768
6.7603996
6.8450085
6.8451792
6.2131057
6.2127398
6.2118119
6.1418426
6.2116885
6.2123579
5.693118
5.6929891
5.691658
5.6332892
5.6914314
5.6927018
5.2625329
5.2631732
5.2615519
5.2126154
5.2610031
5.2626912
4.9059366
4.9087532
4.907435
4.866227
4.9060757
4.9074601
4.6128116
4.6203315
4.6207973
4.5857288
4.6178158
4.6171891
4.3729912
4.3879616
4.392223
4.3612341
4.3872481
4.3818359
4.171992
4.1943461
4.2000294
4.1713348
4.1954106
4.1853786
3.9929084
4.0162179
4.0298438
4.0077356
4.0200281
4.0080448
3.8257447
3.8472196
3.8753928
3.8392374
3.8629642
3.8395485
3.6694684
3.693368
3.7789841
3.7430191
3.7244393
3.6816219
3.5249035
3.5545122
3.7760296
3.7091626
3.6511367
3.5367833
3.3911361
3.4580404
3.9282886
3.7482484
3.6902307
3.4075376
3.2668575
3.4184675
4.1545976
3.8681108
3.8652169
3.29778
3.1513516
3.4796636
4.3423171
4.0451545
4.08348
3.2498308
3.0483683
3.6262973
4.4297564
4.2027268
4.2415301
3.2995381
2.9691015
3.7831242
4.417312
4.2764832
4.2927846
3.4552569
2.9310495
3.8841373
4.3344487
4.2567871
4.2527933
3.6148669
2.9622204
3.9020121
4.212859
4.1682406
4.156899
3.7030435
9.8510167
9.8515519
8.9075213
8.9038464
9.8482469
9.8431956
8.9025533
8.8981695
9.8565129
8.9101718
8.9089324
9.8424942
9.8414525
8.8970621
9.0501302
9.8512153
8.9089712
8.9101694
9.8414516
9.8424946
9.050128
8.8970524
9.8431956
9.8482465
8.8981834
8.9025498
9.8515518
9.8510166
8.9038493
8.9075222
2.9443522
3.6891116
3.0054422
3.6752244
3.8816304
4.1490316
3.842523
4.0695762
3.0806319
3.0923656
3.1335109
4.2027282
4.1592387
4.1051838
4.1787422
3.0299594
3.134398
3.0964181
4.1605729
4.204498
4.1790244
4.1065303
4.1511672
3.8870211
4.0711715
3.8465965
3.6949864
2.9484717
3.6796162
3.0110688
9.8519872
8.9056006
9.8566645
8.9070336
9.8534887
9.8423284
8.9048552
8.8971252
8.9070378
9.8423257
9.8534719
8.8971123
8.9048383
9.8519868
8.9056097
2.9340867
2.9979623
3.0191365
3.0808506
3.2105346
4.2093891
3.2928769
4.1380951
3.0856285
4.2112326
3.2121394
4.13919
3.2944374
2.9342438
2.9982419
9.8534831
8.9048266
9.8566818
9.8423252
8.9070376
8.8970963
8.9048399
9.8423247
9.856682
8.8970902
8.9070366
3.2126208
3.294704
3.0256242
4.2131346
3.0887878
4.1406409
3.2935038
4.210297
3.0218205
4.138495
3.0841627
9.8509392
8.907457
9.8515516
8.903832
8.9074577
9.8515519
8.9038229
2.9512077
3.0145305
3.7006109
3.6840609
3.0089534
3.6935001
3.6784932
9.8482463
8.9025536
9.8431959
8.8981751
8.9025497
9.8431949
8.8981692
10.971225
10.061455
10.294755
11.545355
11.854561
10.901711
11.35481
10.785073
10.294332
10.058166
11.852815
11.538739
11.355047
10.893623
10.105974
9.4064817
9.6182585
10.808724
11.323417
10.181157
10.50729
9.8733369
9.6186319
9.4034009
11.323653
10.801551
10.508998
10.176647
3.8922176
3.850735
4.1555215
4.0746464
3.8452654
4.1515165
4.0714123
9.8424942
8.9101306
8.8970614
9.8563841
9.841452
8.9089752
9.0501246
9.8511901
8.8970559
8.9101319
9.8414517
9.8565126
9.0501256
8.9089428
11.964316
10.949347
11.367197
11.980148
11.871729
11.396181
11.160708
11.747565
11.367334
10.939791
11.870481
11.972823
11.160265
11.382226
10.665417
10.8949
10.065554
11.868307
10.935904
11.371282
10.307752
10.811673
9.4141666
10.183773
10.129421
11.351259
9.6354118
10.524019
11.340461
10.385756
10.657356
11.367599
11.132746
10.67122
10.696329
10.892757
10.65804
10.380322
11.132322
11.353737
10.694759
10.66034
9.8809762
10.177799
9.4091491
11.33777
10.119918
10.511469
9.6257191
4.2087492
3.1038743
4.1100087
3.0882817
4.1661398
3.1419858
4.1829253
3.030852
4.1069576
3.0975925
4.1624247
3.0849953
4.1807493
3.1384408
9.841452
8.9089447
9.0501332
9.85119
9.842494
8.9101318
8.8970555
9.8563844
9.0501287
8.9089772
9.8424942
9.8511915
8.897045
8.9101276
11.352677
9.6371603
10.525988
9.9052221
10.854632
9.4303793
10.211436
11.134937
10.674509
10.699975
10.948645
11.376588
10.414714
10.678334
11.355514
10.698094
10.664252
11.375938
10.919728
10.674356
10.394841
10.121776
10.515872
9.6275853
10.826873
9.8912769
10.190568
9.4158846
4.1655769
3.1416046
4.1828485
3.0357997
4.2088542
3.1034222
4.1100983
3.0859998
4.1811536
3.1394188
4.2078946
3.0357274
4.1092095
3.1033163
9.8431947
8.898187
9.8482462
8.9025469
8.8981755
9.8482465
8.9025338
11.888568
10.94937
11.394376
10.692205
10.953754
10.092877
10.326711
11.566305
11.393598
10.922503
10.951844
10.681398
10.324968
10.082427
11.360411
10.211493
10.530904
9.9078902
10.137606
9.430891
9.6409054
10.828195
10.526087
10.192752
10.13588
9.8970597
9.6386347
9.4215869
4.1561167
4.0750835
3.8935716
3.8518677
4.0742256
3.8941138
3.8521118
9.8515522
8.9038334
9.8509392
8.9074557
8.9038311
9.8509392
8.9074467
3.7039924
3.6866877
2.9561781
3.0210974
3.6865561
2.9559204
3.020874
9.8423255
8.9070372
8.8971098
9.8534726
8.9048485
9.8566821
8.8972517
8.9070313
9.8534908
8.90514
4.2190852
3.0970415
4.1449454
3.2306732
3.3121706
3.0317986
4.1397636
3.0958597
3.2215735
3.2899096
9.8519873
8.9056105
9.8423245
8.9048261
8.8970826
9.8566644
8.9070333
9.85346
8.8972235
8.9050963
9.8566642
8.9070371
8.9056618
2.9466147
3.0148833
4.2219792
3.3137496
4.1468592
3.0385611
3.1037644
3.2206438
4.1393568
3.2889944
3.0300453
3.0936474
3.0255178
9.8515515
8.907524
8.9038364
9.8431959
8.9025592
8.8981672
9.8414514
8.8970629
9.0501223
9.8512153
9.8563743
8.9101647
8.9089658
9.8424939
9.05014
8.8970582
9.856513
9.8512134
8.9089344
8.9101723
9.8482466
8.8981905
8.9025479
9.8510165
8.9038556
8.9075247
3.713337
3.0292668
3.6938297
4.1606284
3.8583496
4.0784814
4.1698385
4.1131937
4.1848706
3.0436213
3.0933284
3.1126925
3.1474983
4.2099359
4.1845258
4.1109236
3.0923141
3.0383703
3.1465276
3.1066538
3.8932792
4.07566
3.8516374
2.9540248
3.6860289
3.0184983
9.542585
9.8506088
9.5413173
9.8554211
9.5450965
9.8571621
9.5439998
9.8531734
9.5441002
9.8537494
9.5461002
9.5423383
9.8564538
9.5442313
9.8511971
9.5412636
9.8518923
9.5446684
9.5413896
9.8567026
9.5410199
9.8555041
9.5416832
9.8524214
9.8448711
8.9059819
8.8995391
9.8411135
9.8398574
9.0462727
9.0406265
9.8530332
8.8995482
8.9059766
9.8398576
9.8411123
9.0406203
9.0462698
9.5450008
9.852065
9.5435311
9.852234
9.5427511
9.5413041
9.8543815
4.0745469