/*--------------------------------*- C++ -*----------------------------------*\
| =========                 |                                                 |
| \\      /  F ield         | OpenFOAM: The Open Source CFD Toolbox           |
|  \\    /   O peration     | Version:  2406                                  |
|   \\  /    A nd           | Website:  www.openfoam.com                      |
|    \\/     M anipulation  |                                                 |
\*---------------------------------------------------------------------------*/
FoamFile
{
    version     2.0;
    format      ascii;
    arch        "LSB;label=32;scalar=64";
    class       volScalarField;
    location    "150";
    object      p;
}
// * * * * * * * * * * * * * * * * * * * * * * * * * * * * * * * * * * * * * //

dimensions      [0 2 -2 0 0 0 0];

internalField   nonuniform List<scalar> 
71615
(
0.28826978
0.28392842
0.28331693
0.28320127
0.2807832
0.28080659
0.27609088
0.27613392
0.26790966
0.2679792
0.25426785
0.25438016
0.23227155
0.23243617
0.19824505
0.19845381
0.1487131
0.14889834
0.083280741
0.083293922
0.0093350119
0.0089887598
-0.056352473
-0.05701862
-0.097549123
-0.098171408
-0.11130144
-0.11165063
-0.10552621
-0.10559486
-0.089907892
-0.089854779
-0.071529888
-0.071498826
-0.05417407
-0.054093923
-0.039216483
-0.039092136
-0.026859256
-0.026709916
-0.016671001
-0.016551124
-0.0079538365
-0.007690502
0.28435248
0.2844001
0.28486383
0.28502767
0.2847449
0.28423495
0.2833482
0.28312188
0.28370395
0.28435773
0.28453655
0.2840604
0.28344863
0.28309518
0.28064106
0.2813438
0.28227959
0.28253811
0.28184506
0.28114274
0.28058357
0.27585256
0.27680587
0.27825203
0.27864986
0.27758075
0.27663154
0.27576984
0.26750957
0.26886279
0.27111718
0.27173847
0.27007693
0.26872357
0.26739447
0.25362206
0.25542597
0.25880676
0.25974422
0.25724421
0.25545142
0.25346393
0.23131995
0.23331369
0.23798894
0.23928788
0.23582261
0.23386768
0.23111977
0.19700764
0.1981692
0.20371056
0.20524601
0.20113903
0.20009351
0.19681314
0.14747175
0.14546391
0.15002134
0.15125411
0.14791787
0.15026862
0.14739073
0.082643532
0.073938334
0.073833328
0.073659516
0.073946278
0.083488961
0.082885097
0.0099032255
-0.0072707182
-0.015675988
-0.018544958
-0.01153079
0.0071783732
0.010637396
-0.054828263
-0.076004487
-0.090413551
-0.095065772
-0.083471417
-0.060498248
-0.053717525
-0.096091164
-0.11315057
-0.12535097
-0.12845337
-0.11989554
-0.1018427
-0.094971806
-0.11047432
-0.11958657
-0.12588024
-0.12724259
-0.12304204
-0.11434294
-0.10964874
-0.10524264
-0.10742748
-0.10912085
-0.10896573
-0.10850853
-0.10708254
-0.10481608
-0.089925552
-0.087944289
-0.086711597
-0.085865441
-0.087458997
-0.090343936
-0.089825992
-0.071614262
-0.067669182
-0.06538578
-0.064505984
-0.066528039
-0.07119151
-0.071711558
-0.054231345
-0.049760694
-0.047476716
-0.046809125
-0.048582221
-0.053421841
-0.054409048
-0.03924966
-0.035023961
-0.033087027
-0.032666904
-0.034042635
-0.03835101
-0.039446488
-0.026882693
-0.023196288
-0.021676517
-0.021429237
-0.022428489
-0.026029537
-0.027064119
-0.016684296
-0.013655444
-0.012556538
-0.012401552
-0.013096631
-0.01598023
-0.01685581
-0.0078917194
-0.0057446031
-0.0052134344
-0.00519546
-0.0054914661
-0.0076164692
-0.0080041057
0.28394182
0.28503764
0.28647976
0.28764497
0.28801144
0.2874117
0.28611969
0.28470964
0.28372759
0.28323926
0.2846794
0.28655471
0.28798705
0.28831584
0.28737551
0.28561296
0.28383203
0.28304725
0.28084662
0.28268036
0.28536319
0.28745988
0.2879505
0.28655874
0.28400591
0.28151677
0.28057285
0.27616248
0.2788166
0.28297363
0.28628709
0.2870738
0.28485629
0.28086449
0.27705173
0.27573805
0.2679749
0.27192946
0.27845355
0.28376396
0.28504098
0.28146261
0.27513678
0.26921989
0.26732887
0.25430429
0.25991232
0.26983862
0.2781592
0.28019544
0.27453398
0.26476524
0.2559037
0.25334554
0.23225091
0.23932879
0.25332786
0.26556271
0.26863571
0.26019307
0.24610656
0.23389275
0.23092562
0.19815973
0.20499429
0.22203941
0.23776663
0.24188021
0.23082146
0.21316298
0.19876001
0.19652043
0.14863059
0.15065803
0.16520799
0.17925124
0.18295227
0.17322226
0.15757713
0.14587305
0.147017
0.083385288
0.073018668
0.071003292
0.063690396
0.061203882
0.06796823
0.072838232
0.07400088
0.082524904
0.009705421
-0.018379466
-0.051668114
-0.089232201
-0.099836574
-0.07190249
-0.032653347
-0.0076966533
0.010425773
-0.056096087
-0.094574171
-0.14229382
-0.19018042
-0.2029186
-0.168895
-0.11662615
-0.077004465
-0.053729004
-0.097879926
-0.12954315
-0.1658661
-0.19825496
-0.20675646
-0.18457278
-0.14697309
-0.11439391
-0.094880441
-0.11210398
-0.12861902
-0.146716
-0.16059438
-0.16371064
-0.15519958
-0.13750427
-0.12101734
-0.10958166
-0.10636671
-0.10995595
-0.11470086
-0.11667609
-0.1171534
-0.11622602
-0.11245794
-0.10860775
-0.1047711
-0.090477183
-0.086548989
-0.08418315
-0.081348824
-0.080844019
-0.082673154
-0.085698055
-0.088633513
-0.089805005
-0.071768723
-0.06494043
-0.059803355
-0.055711701
-0.054831746
-0.057465546
-0.062691255
-0.068018708
-0.071702313
-0.05415648
-0.047007571
-0.041426489
-0.037473621
-0.036601022
-0.039154098
-0.044378573
-0.049895927
-0.054350867
-0.039060316
-0.032658216
-0.02766398
-0.024341014
-0.023624419
-0.025749953
-0.030134535
-0.035046041
-0.039379906
-0.026652584
-0.02123846
-0.017251645
-0.014667915
-0.014116075
-0.015757883
-0.019165744
-0.023167551
-0.026995132
-0.016428922
-0.012175237
-0.0092885236
-0.0073611286
-0.006947455
-0.0081777213
-0.010670435
-0.013611642
-0.016740889
-0.0078090917
-0.0052010864
-0.0035309942
-0.002268481
-0.0019933745
-0.0028083547
-0.0043522854
-0.0058535387
-0.0077836096
0.28437364
0.2850595
0.28727552
0.28980006
0.2917242
0.29231628
0.29134448
0.28918779
0.28665677
0.28465036
0.28660476
0.28315425
0.28470277
0.28762609
0.29080566
0.29309334
0.29360185
0.2921247
0.28925005
0.28605257
0.28366758
0.28319589
0.28068043
0.2827073
0.28688991
0.29156634
0.29500445
0.29577799
0.293543
0.28926442
0.28462863
0.28127802
0.28064771
0.27589769
0.27884797
0.28532353
0.29279388
0.29845192
0.29974528
0.29603303
0.2890882
0.28180942
0.27667873
0.27585346
0.26756527
0.27196887
0.28214148
0.29429359
0.30382486
0.30604808
0.29971623
0.28821518
0.27659445
0.26863822
0.26750956
0.2536873
0.25995944
0.27547597
0.29494919
0.31097662
0.31481269
0.30399731
0.28508775
0.26694356
0.25504563
0.25362897
0.23139053
0.23938612
0.26136778
0.29092605
0.31697387
0.32346268
0.30545772
0.27569901
0.24911972
0.23273567
0.23134228
0.19707447
0.20506086
0.23201754
0.27193655
0.31043105
0.32032356
0.29319286
0.25089511
0.21675126
0.19742562
0.19708972
0.14752801
0.15072894
0.17406798
0.21003194
0.23291036
0.23654713
0.22483448
0.19175947
0.16057242
0.14478316
0.1476723
0.082670673
0.073074539
0.068956384
0.03850933
-0.006449194
-0.014508124
0.01365471
0.059267359
0.072547758
0.073912587
0.083077411
0.0098943069
-0.018372937
-0.073660811
-0.18711044
-0.28112327
-0.30138128
-0.24205204
-0.12529294
-0.039194335
-0.0061261352
0.010631834
-0.054884703
-0.094646927
-0.17482292
-0.29700237
-0.39365806
-0.41458183
-0.35192564
-0.23630261
-0.12648941
-0.07408609
-0.053911478
-0.096183884
-0.1297114
-0.19114162
-0.2601238
-0.31006386
-0.32244709
-0.28914581
-0.22712358
-0.1555326
-0.11149253
-0.095254381
-0.11058678
-0.12884994
-0.15817725
-0.18266858
-0.19951099
-0.20367556
-0.19262712
-0.17128018
-0.14238447
-0.11891949
-0.10989691
-0.10536716
-0.11021088
-0.11668417
-0.11926806
-0.12095147
-0.12148555
-0.12041507
-0.11817366
-0.11416537
-0.10760395
-0.10494881
-0.090034916
-0.08675621
-0.082211458
-0.076187815
-0.072407548
-0.071686432
-0.074071617
-0.079026456
-0.085282174
-0.08838125
-0.089879342
-0.071703738
-0.065081963
-0.05668532
-0.048483399
-0.043414909
-0.042391256
-0.045559189
-0.052316481
-0.061317234
-0.068139541
-0.07171856
-0.054298057
-0.04709439
-0.038348048
-0.030576307
-0.025803613
-0.024827847
-0.027798657
-0.034211673
-0.04287025
-0.050163816
-0.054397191
-0.039303218
-0.032709136
-0.025061767
-0.018566145
-0.01458676
-0.013769689
-0.01624261
-0.021600275
-0.028900873
-0.035357609
-0.039444344
-0.026929954
-0.021265845
-0.015221745
-0.010132901
-0.0069734564
-0.0063261284
-0.0082842816
-0.012518957
-0.018216411
-0.023433082
-0.027082585
-0.016722636
-0.012192866
-0.0077830519
-0.0039247981
-0.0015087811
-0.0010079139
-0.0025114642
-0.0057337623
-0.010000746
-0.013829488
-0.016881749
-0.0079140797
-0.0052021149
-0.0025630025
0.000111585
0.0018971092
0.0022781898
0.001149913
-0.0011634336
-0.0039748447
-0.0058599268
-0.0080760755
0.28445786
0.28652778
0.28982893
0.29337297
0.29600793
0.29681096
0.29549063
0.29252307
0.28893277
0.28585444
0.28430205
0.28376921
0.28660618
0.29083516
0.2952147
0.29830858
0.29899085
0.29700098
0.293085
0.28860439
0.28493615
0.28338871
0.28141695
0.28542355
0.29160257
0.29819725
0.30296587
0.30403032
0.30094163
0.29497118
0.28832225
0.28304872
0.28107075
0.27688928
0.28304246
0.2928371
0.30373798
0.31189108
0.31374278
0.3084057
0.2983546
0.28758904
0.27938331
0.27650278
0.26896109
0.27854115
0.29435322
0.31286989
0.32743976
0.33083079
0.32113756
0.30359961
0.28579786
0.27282419
0.2685075
0.25553222
0.2699478
0.29503613
0.32654957
0.3529249
0.35929542
0.34134536
0.31049493
0.28126224
0.2612826
0.25512524
0.2334325
0.25346876
0.291066
0.34323589
0.3911563
0.40327228
0.36965665
0.31596834
0.26999188
0.24128145
0.23342426
0.19828512
0.22222725
0.27218189
0.35123667
0.41939359
0.43399309
0.39073288
0.30893302
0.24335123
0.20744233
0.19960672
0.145557
0.16543273
0.21038072
0.24939043
0.26599289
0.27300081
0.25740045
0.2354393
0.18450778
0.15285123
0.14994259
0.073956491
0.071127598
0.038085981
-0.046404504
-0.045871493
-0.023556819
-0.058828415
-0.0064160964
0.062717893
0.073210691
0.083700383
-0.0073636115
-0.052079952
-0.18826601
-0.35353525
-0.39079104
-0.36538486
-0.39133322
-0.27874274
-0.10371814
-0.022378087
0.008211277
-0.0761773
-0.14303407
-0.29761262
-0.47599126
-0.58026271
-0.68240621
-0.55149151
-0.38673037
-0.21023567
-0.10078691
-0.058895605
-0.11335554
-0.16665803
-0.26060333
-0.36224163
-0.47386823
-0.50492745
-0.41653414
-0.30931296
-0.21231116
-0.13368451
-0.10032316
-0.11978567
-0.14725951
-0.18293661
-0.21661889
-0.24791357
-0.25667364
-0.23334717
-0.19950282
-0.16572589
-0.13017086
-0.11328576
-0.10762505
-0.11499382
-0.11939865
-0.12333696
-0.12769473
-0.12903418
-0.12567271
-0.12120548
-0.11745767
-0.10975174
-0.10659424
-0.088132482
-0.084320994
-0.076245049
-0.069493539
-0.065633455
-0.064939752
-0.067227126
-0.072578611
-0.08028294
-0.085777056
-0.090402301
-0.067830107
-0.059866453
-0.048503186
-0.039204185
-0.033605514
-0.03248606
-0.035936237
-0.043493107
-0.054081969
-0.064107502
-0.071542325
-0.049882572
-0.041452714
-0.030578665
-0.021775085
-0.016510696
-0.01544945
-0.01868931
-0.025835175
-0.035896647
-0.046260928
-0.053872288
-0.035117443
-0.027675315
-0.018560631
-0.011209314
-0.0068028854
-0.0059148238
-0.0086220388
-0.014604005
-0.023018584
-0.032027793
-0.03878992
-0.023266244
-0.017256753
-0.010125791
-0.0042822583
-0.00079321014
-8.7325735e-05
-0.0022314429
-0.0069814967
-0.013628832
-0.020768471
-0.026449377
-0.01370616
-0.009291169
-0.003918058
0.00058736669
0.0033376941
0.00390016
0.0022038115
-0.0015080837
-0.0065792318
-0.011846228
-0.016361797
-0.005785073
-0.0035305656
0.00011672513
0.0035174113
0.0057442518
0.006215505
0.0048162689
0.0019043633
-0.0017490301
-0.0050291064
-0.0079550531
0.28830906
0.28494734
0.28772097
0.29178517
0.29604174
0.29917573
0.30012823
0.29856148
0.29502579
0.2906943
0.28686587
0.28455257
0.28340617
0.28444664
0.28806597
0.29315404
0.29834249
0.30198624
0.30278754
0.30044602
0.29582311
0.29048356
0.28598702
0.28379585
0.28088215
0.28238084
0.28755311
0.29508023
0.30300915
0.30872485
0.30999838
0.30629697
0.29913284
0.2911024
0.28455885
0.28161533
0.27620182
0.2783661
0.28639455
0.29854498
0.31194908
0.32199062
0.32427263
0.31768653
0.30532543
0.29205573
0.28172102
0.27732864
0.26803364
0.27124943
0.28390126
0.30395711
0.32752965
0.34621547
0.35056653
0.3381107
0.31568315
0.29311213
0.27649464
0.26978404
0.25439254
0.25894658
0.2783334
0.31117751
0.35308204
0.38899806
0.39773369
0.37310079
0.33159101
0.29309622
0.26687476
0.25702091
0.23239422
0.23814066
0.26578935
0.31730899
0.39146588
0.46099767
0.47780513
0.42987176
0.35225566
0.28820703
0.24919242
0.23604279
0.19833377
0.20384585
0.23806489
0.31102167
0.41993167
0.49964655
0.51728133
0.46619906
0.36444632
0.26834767
0.21710625
0.20273373
0.1487368
0.15009494
0.17955627
0.23331368
0.26664227
0.33944561
0.37008882
0.29618053
0.25178204
0.20524018
0.16106119
0.15259613
0.083176921
0.073729876
0.063369317
-0.0076767729
-0.041511066
0.20165831
0.31166198
0.046026735
-0.05195311
0.04057578
0.071621367
0.08385912
0.0090934012
-0.016043404
-0.090707872
-0.28347365
-0.45715788
-0.15728443
0.40099564
-0.090351938
-0.38491433
-0.17443353
-0.042434975
0.0039254946
-0.05666398
-0.090817578
-0.19107452
-0.39332765
-0.57320476
-0.60999137
-0.77642316
-0.83763701
-0.51280773
-0.28515908
-0.12736013
-0.066445653
-0.097847541
-0.12569538
-0.19902182
-0.31081139
-0.47402648
-0.74317115
-0.83261
-0.59177284
-0.37708246
-0.25271978
-0.1531757
-0.10723159
-0.11155074
-0.12619869
-0.160961
-0.19981324
-0.24806812
-0.31191644
-0.33008541
-0.27893147
-0.22149011
-0.17978569
-0.13897995
-0.11772647
-0.10571465
-0.10938036
-0.11682308
-0.12106881
-0.12773943
-0.13767519
-0.1405532
-0.1325444
-0.12379825
-0.11876801
-0.11163122
-0.10869753
-0.090032846
-0.086899437
-0.081391982
-0.072429498
-0.06562514
-0.06252199
-0.062027144
-0.06364373
-0.068620718
-0.076752406
-0.08443778
-0.090467618
-0.071609574
-0.065519137
-0.055707372
-0.043397751
-0.033581341
-0.027864226
-0.02673235
-0.030191884
-0.038087495
-0.049381294
-0.061538135
-0.070553605
-0.054221942
-0.047573404
-0.037450122
-0.025773453
-0.016483267
-0.011001041
-0.009893361
-0.01325596
-0.020755866
-0.031462243
-0.043354757
-0.052624056
-0.039239538
-0.033158548
-0.024313882
-0.014555341
-0.0067784675
-0.002196979
-0.0012727917
-0.0040776794
-0.010364553
-0.019318509
-0.029342612
-0.037593688
-0.026871369
-0.021731188
-0.014642536
-0.0069454446
-0.00077332199
0.0028719264
0.003608645
0.0013752803
-0.0036185906
-0.010727398
-0.018595899
-0.02532774
-0.016677954
-0.012601158
-0.0073400491
-0.0014854619
0.0033531145
0.0062659726
0.0068596614
0.005067467
0.0011076192
-0.0043870036
-0.010255149
-0.015388087
-0.007943045
-0.0052615976
-0.0022559677
0.001911057
0.0057529451
0.0082424518
0.0087687017
0.0072066117
0.0039327188
-0.00022040391
-0.0040777785
-0.0072153253
0.28398335
0.28513106
0.2881118
0.29240575
0.296876
0.30016056
0.30115818
0.29951593
0.29580816
0.29125518
0.28720082
0.2846649
0.28330965
0.28464561
0.28841803
0.29369037
0.29905658
0.30282171
0.30364899
0.30122881
0.29644941
0.29092188
0.28625893
0.28360454
0.28092478
0.28266135
0.2880709
0.29588751
0.30411361
0.31004186
0.31136207
0.3075216
0.30008873
0.29175495
0.28496153
0.28118372
0.27626511
0.27878785
0.28721299
0.29988165
0.3138571
0.32433776
0.32671884
0.31983946
0.30694357
0.2931132
0.28234364
0.27653706
0.26812318
0.27189537
0.28521637
0.30624094
0.33100811
0.35067309
0.35525118
0.3421319
0.31854451
0.29486336
0.27747283
0.26842949
0.25451774
0.25990717
0.28041253
0.31509896
0.35960218
0.3979353
0.40724997
0.38093466
0.33672552
0.2959835
0.26837974
0.25478008
0.23256669
0.23945551
0.26889901
0.32390685
0.4038344
0.47817581
0.49576645
0.4451156
0.36146929
0.29278939
0.25136849
0.23246502
0.19852526
0.20536921
0.24216262
0.32096666
0.43473521
0.51768793
0.53651021
0.48233657
0.37762446
0.27493858
0.21985873
0.19726856
0.14887368
0.15123781
0.1830226
0.23673497
0.27391659
0.37083295
0.40861467
0.313646
0.25447659
0.20976195
0.16358573
0.14484692
0.083080489
0.073321828
0.060289667
-0.017046686
-0.022030726
0.31264872
0.43550385
0.11067747
-0.053347036
0.033951776
0.071152046
0.074171962
0.0085904407
-0.019246344
-0.10154928
-0.305241
-0.41763536
0.39949433
1.023015
0.37831366
-0.39648838
-0.19271161
-0.048000204
-0.0057305812
-0.057474985
-0.095672192
-0.20341103
-0.40777716
-0.66012198
-0.77621923
-0.42438488
-0.8148445
-0.60132455
-0.30283157
-0.13486835
-0.073280272
-0.098561914
-0.12881404
-0.20702335
-0.32301408
-0.50521693
-0.83491847
-0.90904033
-0.65341935
-0.39482477
-0.26238295
-0.15879433
-0.11005531
-0.11193368
-0.12743708
-0.16371884
-0.20352803
-0.25666323
-0.33042632
-0.34753456
-0.29267641
-0.22735413
-0.1831052
-0.14184663
-0.1175588
-0.10577174
-0.10901062
-0.11706101
-0.12131978
-0.12889687
-0.14053585
-0.14356945
-0.13463825
-0.12460964
-0.11915704
-0.11269352
-0.10657164
-0.089941901
-0.085827933
-0.08072299
-0.071526527
-0.064803046
-0.061964018
-0.061516495
-0.063001967
-0.067864924
-0.076076749
-0.084454411
-0.087784383
-0.071530677
-0.064433711
-0.054713893
-0.042257177
-0.032374681
-0.026675489
-0.025553128
-0.029019162
-0.036987621
-0.048413496
-0.06078943
-0.068213565
-0.054096457
-0.046727199
-0.036498195
-0.024720026
-0.01536321
-0.0098488247
-0.0087424424
-0.012132172
-0.019716508
-0.030531347
-0.042537639
-0.050508922
-0.039079071
-0.032592661
-0.023539688
-0.013685287
-0.0058491141
-0.0012390115
-0.0003138992
-0.0031429001
-0.0094912049
-0.018545059
-0.028679995
-0.035707638
-0.026697177
-0.021364512
-0.014049559
-0.0062623549
-3.8356153e-05
0.0036338231
0.004372117
0.0021188687
-0.002927554
-0.010117813
-0.018092991
-0.023762109
-0.016544992
-0.012344518
-0.0068981348
-0.00096235723
0.0039352727
0.0068775719
0.0074747772
0.0056624216
0.0016528163
-0.0039241938
-0.0098839352
-0.014120609
-0.0076921679
-0.0051527699
-0.0019640783
0.0023058201
0.0062383823
0.0087804692
0.0093173496
0.0077193488
0.0043687621
0.00011086904
-0.0038612897
-0.0058703378
0.28486278
0.2875289
0.29145299
0.2955772
0.29861907
0.29954332
0.29802049
0.29458793
0.29039351
0.2867027
0.28445521
0.28418412
0.28749488
0.29223338
0.29709047
0.3005071
0.30125797
0.2990594
0.29472491
0.28973566
0.28557654
0.28372054
0.2819833
0.28669628
0.29367348
0.30105118
0.30637304
0.30755799
0.30410834
0.29743665
0.28997434
0.2839444
0.28149324
0.27773695
0.28501565
0.2961959
0.30855657
0.31779916
0.31989461
0.31383232
0.30243928
0.29020874
0.28074898
0.27712929
0.27024916
0.28165734
0.29993903
0.32136423
0.33829125
0.34222108
0.33093684
0.31059494
0.29004129
0.27494174
0.26944828
0.25741963
0.27476604
0.30431225
0.34171938
0.37342735
0.38109704
0.35938584
0.32255826
0.28805685
0.26447934
0.2564876
0.23598717
0.26045311
0.30590946
0.37029854
0.43048641
0.44541237
0.40326141
0.33637137
0.28032934
0.24576863
0.23526199
0.20123441
0.23105281
0.29376914
0.39164085
0.46688686
0.48263911
0.43547621
0.34047528
0.25735714
0.21289153
0.20171789
0.14784337
0.17320169
0.22496758
0.25772526
0.29678096
0.31426536
0.27309269
0.24652129
0.19693331
0.15750236
0.15156215
0.073550506
0.067166441
0.012091821
-0.058382434
0.049722859
0.10939043
-0.026982962
-0.037323459
0.051705724
0.072779782
0.083305
-0.012254897
-0.073193832
-0.24471213
-0.39753436
-0.07898458
0.38469302
-0.032270644
-0.33822046
-0.14356257
-0.032943983
0.0044621965
-0.08420999
-0.16946014
-0.3528373
-0.54831745
-0.8502558
-0.83280011
-0.83244369
-0.4527969
-0.25369568
-0.11555591
-0.064975287
-0.12041772
-0.1847382
-0.28933497
-0.41768388
-0.59460511
-0.65373236
-0.50537198
-0.34755459
-0.23638872
-0.14495958
-0.10579466
-0.12328717
-0.15513739
-0.19244585
-0.23343323
-0.27946994
-0.29285435
-0.25636951
-0.21205916
-0.17430883
-0.13543383
-0.11667204
-0.10852197
-0.11606746
-0.1201825
-0.12552531
-0.13257742
-0.13460627
-0.12906131
-0.12276335
-0.11847446
-0.11107206
-0.10815903
-0.087315452
-0.082503855
-0.073862589
-0.067060866
-0.063573683
-0.062945576
-0.064957587
-0.070295554
-0.078326792
-0.085080587
-0.090371682
-0.066338303
-0.057319187
-0.045391772
-0.035795895
-0.030113874
-0.028969995
-0.032477586
-0.040319905
-0.051371234
-0.062697468
-0.070579034
-0.048401756
-0.039029844
-0.027667954
-0.018579009
-0.01318942
-0.012093445
-0.015431841
-0.022830621
-0.033314499
-0.044726726
-0.0525891
-0.033889905
-0.025647422
-0.016141776
-0.0085367417
-0.0040245524
-0.0031133045
-0.0058926714
-0.012090486
-0.020854998
-0.030567783
-0.037559616
-0.022308601
-0.015678821
-0.0082086151
-0.0021668437
0.001416137
0.0021410658
-6.6898781e-05
-0.0049816242
-0.011930643
-0.019556844
-0.025287636
-0.013010814
-0.0081236234
-0.0024585913
0.0022484958
0.0050975749
0.0056785767
0.0039175122
4.4405593e-05
-0.0052943786
-0.010965442
-0.015303669
-0.005446673
-0.0027817163
0.0011820257
0.0048449191
0.0072264037
0.0077304186
0.0062304841
0.0030968974
-0.00086005587
-0.0045273304
-0.0070602678
0.28435814
0.28624471
0.28930407
0.29262079
0.29509786
0.29585247
0.29460642
0.29181624
0.28846092
0.28561856
0.2840857
0.28357801
0.28574278
0.28937022
0.29318803
0.29590206
0.29650012
0.29474814
0.29131689
0.28743458
0.28434865
0.28333671
0.28128505
0.28415151
0.28940279
0.29509181
0.29922514
0.30014695
0.29746159
0.29229129
0.28658748
0.28220612
0.28092844
0.27679269
0.28103409
0.28926025
0.29851713
0.30545904
0.30703065
0.30247743
0.29392113
0.28481943
0.27806621
0.27625698
0.26890142
0.27533537
0.28843728
0.30382943
0.31588105
0.3186712
0.31064636
0.29610234
0.28131283
0.27074486
0.26809071
0.25563385
0.26499103
0.28538252
0.31084329
0.33191601
0.33693038
0.32263207
0.29785073
0.27416683
0.25813625
0.2544545
0.23403203
0.24634512
0.2760876
0.31651923
0.35281759
0.36179991
0.33646905
0.29541977
0.25945926
0.23692411
0.23244159
0.20018929
0.2133588
0.25134852
0.30975985
0.36530223
0.37801107
0.34052908
0.27830294
0.22963798
0.20228903
0.19832034
0.15021439
0.15758939
0.19205769
0.23586766
0.25196857
0.25444035
0.24640734
0.21592351
0.17198644
0.14870572
0.14861024
0.08318093
0.072395636
0.058574196
-0.0076248494
-0.052088033
-0.054585682
-0.037618307
0.031695039
0.069718433
0.073778979
0.082916688
0.0065998915
-0.033656426
-0.12711081
-0.28107746
-0.38741835
-0.39656141
-0.33871707
-0.20536251
-0.067678026
-0.013082515
0.0087155769
-0.061185807
-0.11748823
-0.23775039
-0.38901443
-0.51653721
-0.60193677
-0.4521019
-0.31328241
-0.16602398
-0.086106901
-0.057103272
-0.10242459
-0.14736389
-0.22784276
-0.31047732
-0.37840217
-0.39518729
-0.34748535
-0.26918041
-0.18455132
-0.1225085
-0.098222336
-0.11470598
-0.13755353
-0.17148866
-0.19991095
-0.22201832
-0.22739861
-0.21186987
-0.18597322
-0.1557292
-0.12513828
-0.11174982
-0.10720033
-0.1123655
-0.1181615
-0.12127537
-0.12392645
-0.1245429
-0.12263551
-0.11976499
-0.11642725
-0.10953321
-0.10578834
-0.090283362
-0.085579369
-0.078939048
-0.072531736
-0.068608972
-0.067779875
-0.07020774
-0.075551314
-0.082788055
-0.087726945
-0.090087849
-0.071010535
-0.062579989
-0.05221459
-0.043414709
-0.038034835
-0.036911338
-0.040260435
-0.04754152
-0.057545333
-0.066461386
-0.071572191
-0.053181566
-0.04426823
-0.034114101
-0.025755786
-0.020696973
-0.019654237
-0.022789312
-0.029666356
-0.039208218
-0.048383882
-0.054089103
-0.038079311
-0.030036252
-0.021515292
-0.014533231
-0.010310595
-0.009442274
-0.012061217
-0.017796211
-0.025777274
-0.033814084
-0.039060563
-0.025750666
-0.019088098
-0.012450811
-0.0069222981
-0.003573897
-0.0028899926
-0.0049611622
-0.0095185711
-0.015767649
-0.022200526
-0.02664955
-0.015716886
-0.010618359
-0.0056865501
-0.0014653081
0.001141994
0.0016800783
5.9008249e-05
-0.0034521569
-0.0081830771
-0.012903343
-0.016457914
-0.0073797125
-0.0043315197
-0.0011355719
0.0019315209
0.0039558871
0.004386997
0.003106397
0.00046141045
-0.0028091554
-0.0055390554
-0.0078531306
0.2834719
0.28483715
0.28677344
0.28903363
0.29077359
0.29130898
0.29042211
0.28847157
0.28621291
0.28447848
0.2832293
0.28396491
0.28617659
0.28871329
0.29057128
0.29098536
0.28977437
0.2874511
0.28494219
0.28369582
0.28073005
0.28166525
0.28476594
0.28844312
0.29120028
0.29182397
0.29001347
0.28660418
0.28301299
0.28142494
0.27593371
0.27722533
0.28197763
0.28774674
0.29218995
0.29321156
0.29026724
0.28484483
0.27927786
0.27698544
0.26757557
0.26941879
0.27679853
0.28600134
0.29329101
0.29499103
0.29011116
0.28134159
0.27259568
0.26918657
0.2536493
0.25612261
0.26719552
0.28154221
0.29335683
0.29616341
0.28814416
0.27419302
0.26085051
0.25602409
0.23128747
0.23411294
0.24942137
0.27038458
0.28859865
0.29304229
0.28043038
0.25948601
0.24054671
0.23448811
0.19692265
0.19893877
0.21707335
0.24385735
0.26888741
0.2752209
0.25739745
0.22963238
0.20638782
0.20059393
0.14737458
0.14592774
0.16080903
0.18503446
0.20574406
0.20983938
0.19672637
0.17188389
0.15177445
0.1502014
0.082645019
0.073789225
0.072443053
0.062517323
0.040065926
0.033306395
0.051369776
0.069469178
0.073031614
0.082281038
0.010150596
-0.0082341238
-0.039945487
-0.10541341
-0.17627105
-0.19369416
-0.14367141
-0.067782941
-0.020298238
0.0045620024
-0.054341537
-0.077723673
-0.12759062
-0.21226006
-0.28696478
-0.30358871
-0.25364587
-0.1658702
-0.097942008
-0.063932029
-0.095555363
-0.11504914
-0.15649629
-0.21361902
-0.25389241
-0.26275136
-0.23621918
-0.18434411
-0.13240815
-0.10490086
-0.11007235
-0.12147229
-0.14300083
-0.16634343
-0.18033883
-0.18319412
-0.17412401
-0.15558679
-0.13037884
-0.11645779
-0.10505284
-0.10882657
-0.11446678
-0.11770974
-0.11898268
-0.11912968
-0.11832156
-0.11632464
-0.11063334
-0.10819034
-0.089911755
-0.08869373
-0.085376815
-0.080357414
-0.076813958
-0.076011785
-0.078209918
-0.08271865
-0.08661332
-0.090577979
-0.071700669
-0.067997366
-0.061323901
-0.054081958
-0.049378622
-0.048342557
-0.051284003
-0.057498018
-0.064753204
-0.07064954
-0.054346415
-0.049830644
-0.042841093
-0.03586661
-0.031434531
-0.030466197
-0.033247487
-0.039171866
-0.046682455
-0.052273138
-0.039365836
-0.034976439
-0.028858621
-0.022979875
-0.019284376
-0.018489912
-0.02080307
-0.025749331
-0.032271168
-0.036927508
-0.026982582
-0.023104554
-0.018174033
-0.013591492
-0.010695235
-0.010073977
-0.011892468
-0.015749226
-0.020857149
-0.024604053
-0.01678155
-0.013562156
-0.0099700836
-0.0065514031
-0.0043600184
-0.0038920325
-0.0052686345
-0.0081725917
-0.011919818
-0.014654744
-0.0079525238
-0.0058264728
-0.0039557882
-0.0017322716
-0.00020195921
0.00013063913
-0.00084658756
-0.0028049593
-0.0050849469
-0.0063050701
0.28384469
0.28476728
0.28595662
0.28694933
0.28726132
0.28673998
0.28563916
0.28448676
0.28368105
0.28317707
0.28379065
0.28504582
0.28607875
0.28632859
0.28562306
0.2843757
0.28370926
0.28312047
0.28071664
0.28141404
0.28316929
0.28465821
0.28503607
0.28399468
0.28223544
0.28144033
0.28065322
0.27590151
0.27684062
0.27953171
0.28184899
0.28244431
0.28081712
0.27810384
0.27700418
0.2758211
0.26751557
0.26882923
0.27300367
0.27664996
0.27759282
0.27502006
0.27078787
0.26920272
0.26740469
0.25354839
0.25526877
0.26150959
0.26707587
0.26852398
0.26456824
0.25817796
0.25605277
0.25340836
0.2311255
0.23297539
0.24156221
0.24945112
0.2515408
0.24585669
0.23695276
0.23452333
0.23096643
0.19669396
0.19766512
0.2077526
0.21739563
0.22001364
0.21292513
0.20227253
0.2005987
0.19654701
0.14710539
0.1449463
0.15312218
0.16131401
0.16362745
0.15739806
0.14860797
0.15017623
0.14705672
0.082418454
0.073875058
0.073289713
0.071643404
0.070909582
0.072450993
0.073564981
0.082212986
0.082615653
0.010071503
-0.0064399381
-0.022697985
-0.042945725
-0.048520218
-0.03341438
-0.013395721
0.0044508207
0.010616823
-0.054263915
-0.074627287
-0.1015033
-0.12827197
-0.13541051
-0.11582705
-0.086400766
-0.064054339
-0.053441385
-0.095442471
-0.11206155
-0.13452013
-0.15407104
-0.15913974
-0.14493425
-0.12267087
-0.10500189
-0.094620424
-0.1100378
-0.11938957
-0.1309093
-0.13963547
-0.14200692
-0.13523329
-0.12514054
-0.11651703
-0.10943955
-0.10508619
-0.10796471
-0.11031819
-0.11200818
-0.11273928
-0.11086154
-0.10936087
-0.10820951
-0.10475146
-0.089980647
-0.088642085
-0.086161658
-0.084628495
-0.084437584
-0.084906303
-0.087495591
-0.090573427
-0.089810353
-0.071782044
-0.068316362
-0.064350429
-0.061619073
-0.060748682
-0.06257105
-0.066235126
-0.07063809
-0.071702485
-0.054373912
-0.050281589
-0.046396493
-0.043371165
-0.042487897
-0.044631638
-0.0481805
-0.052269837
-0.054405739
-0.039379346
-0.03543403
-0.032102367
-0.029335032
-0.028631062
-0.030492811
-0.03365213
-0.036938525
-0.039502187
-0.026983842
-0.02348143
-0.020810321
-0.018582375
-0.018050786
-0.019501341
-0.022083784
-0.024630727
-0.027128913
-0.016723435
-0.013858703
-0.01187837
-0.010244008
-0.0098497365
-0.010928291
-0.012825541
-0.014697152
-0.016908863
-0.0077676496
-0.0058783788
-0.0050534158
-0.0040708309
-0.0038399989
-0.0045153594
-0.005492281
-0.0063668222
-0.0081092214
0.28679726
0.28441052
0.28463974
0.28473007
0.28450073
0.28413275
0.28332237
0.28349965
0.28388906
0.28367738
0.28377303
0.28337706
0.28077904
0.28119266
0.28172163
0.28126645
0.28155443
0.28096946
0.27600618
0.27664465
0.27745284
0.2766365
0.2772017
0.2763039
0.2676879
0.26867679
0.26993166
0.26854834
0.26953749
0.26814617
0.25383049
0.25532669
0.25720157
0.25491217
0.25659203
0.25451435
0.23156631
0.23365796
0.23625239
0.23260186
0.2353633
0.23248605
0.19731036
0.19984506
0.20294181
0.19736917
0.20177663
0.19832656
0.14783374
0.15014255
0.15276077
0.14486406
0.15152758
0.1485379
0.083073565
0.083754153
0.083884239
0.074037123
0.083130814
0.08274306
0.010406466
0.0080350383
0.003718743
-0.0060387823
0.0041442792
0.0084455685
-0.054344005
-0.059306051
-0.06687188
-0.073690403
-0.065348726
-0.05739259
-0.095762759
-0.10082819
-0.10771396
-0.11044071
-0.10610896
-0.098444562
-0.11035177
-0.11374253
-0.11814159
-0.1178499
-0.11686916
-0.11186664
-0.10530644
-0.10694897
-0.10898818
-0.10673942
-0.10824003
-0.10579777
-0.090121157
-0.090643718
-0.090644037
-0.087866025
-0.090371579
-0.090034583
-0.071872038
-0.071693768
-0.070670839
-0.068248026
-0.070544511
-0.071482587
-0.054489386
-0.053968534
-0.052699597
-0.050516336
-0.052544224
-0.053978908
-0.039500286
-0.038857044
-0.037644296
-0.035703067
-0.037520632
-0.03893439
-0.027113085
-0.026499691
-0.025363575
-0.023754561
-0.025264662
-0.026518144
-0.016888535
-0.016389595
-0.015406919
-0.014110817
-0.015303576
-0.016336624
-0.0080599217
-0.0079673675
-0.0072372233