/*--------------------------------*- C++ -*----------------------------------*\
| =========                 |                                                 |
| \\      /  F ield         | OpenFOAM: The Open Source CFD Toolbox           |
|  \\    /   O peration     | Version:  2406                                  |
|   \\  /    A nd           | Website:  www.openfoam.com                      |
|    \\/     M anipulation  |                                                 |
\*---------------------------------------------------------------------------*/
FoamFile
{
    version     2.0;
    format      ascii;
    arch        "LSB;label=32;scalar=64";
    class       surfaceScalarField;
    location    "150";
    object      phi;
}
// * * * * * * * * * * * * * * * * * * * * * * * * * * * * * * * * * * * * * //

dimensions      [0 3 -1 0 0 0 0];

oriented        oriented;

internalField   nonuniform List<scalar> 
214131
(
-3.3143612e-06
0.00099028279
-0.00013501936
-5.7670295e-06
1.2148915e-05
0.0020781538
0.00011835391
-0.0012122432
4.9804962e-07
-3.0828867e-06
0.0012148317
-0.002384241
-1.9518562e-07
3.5129428e-07
-8.7630252e-06
0.0023928578
-0.0012170653
-7.6014186e-08
0.001217899
-7.5570548e-07
-0.0023993004
-7.9893014e-09
4.4698456e-08
0.0024023549
-3.0816129e-06
-0.0012217255
-2.3475559e-07
0.0012235059
-1.5431378e-06
-0.0024095106
9.1937515e-09
1.0059117e-07
0.0024142667
-4.8573447e-06
-0.0012306815
-4.880711e-07
0.0012337998
-2.6284684e-06
-0.0024275483
1.6943892e-08
1.9971127e-07
0.0024349708
-7.6302987e-06
-0.0012458793
-8.6563955e-07
0.0012509809
-4.232119e-06
-0.0024576556
1.9520063e-08
3.6228018e-07
0.0024690736
-1.1797887e-05
-0.0012702486
-1.4344452e-06
0.0012781914
-6.5047878e-06
-0.0025057069
5.4457085e-08
5.8693458e-07
0.0025228708
-1.780144e-05
-0.0013073099
-2.2114351e-06
0.0013189394
-9.4190962e-06
-0.002578681
9.5719899e-08
9.0066962e-07
0.0026033327
-2.5664503e-05
-0.0013598636
-3.1161963e-06
0.0013754637
-1.2485522e-05
-0.0026822677
1.5568051e-07
1.264767e-06
0.0027150472
-3.4213703e-05
-0.0014271109
-3.8702636e-06
0.0014454651
-1.4486011e-05
-0.0028151349
2.3604803e-07
1.5178839e-06
0.0028535846
-4.024249e-05
-0.0015009344
-4.0408879e-06
0.0015186598
-1.3687995e-05
-0.0029613589
3.3992332e-07
1.4501254e-06
0.0029985491
-3.9001315e-05
-0.0015656667
-3.3982645e-06
0.0015785481
-9.4864036e-06
-0.0030896441
4.2223882e-07
9.4995314e-07
0.0031168747
-2.8628931e-05
-0.0016070833
-2.2875678e-06
0.0016132261
-3.8586335e-06
-0.0031713132
4.7141855e-07
2.1915568e-07
0.0031847622
-1.4155068e-05
-0.0016226358
-1.2483952e-06
0.0016232391
6.4261212e-07
-0.0032015785
4.8074305e-07
-4.0600967e-07
0.003203914
-2.4147366e-06
-0.0016194071
-5.0457312e-07
0.0016167244
3.1854998e-06
-0.0031948033
4.6283327e-07
-7.9051201e-07
0.0031905827
4.5455201e-06
-0.0016061636
-1.114107e-07
0.0016021462
4.1276184e-06
-0.0031685007
4.3417625e-07
-9.4037605e-07
0.0031617038
7.3079817e-06
-0.0015895843
1.6692273e-07
0.0015854229
3.9936576e-06
-0.0031358384
4.0980261e-07
-1.0090481e-06
0.003128722
7.7175529e-06
-0.0015734294
3.4267123e-07
0.0015696623
3.42326e-06
-0.0031036818
4.2166219e-07
-1.0164474e-06
0.0030972782
7.0036339e-06
-0.0015591061
3.8142831e-07
0.0015558448
2.8784187e-06
-0.0030747698
4.3366098e-07
-9.5206738e-07
0.0030692325
6.0574359e-06
-0.0015466731
2.0978751e-07
0.0015437802
2.6822863e-06
-0.0030490813
5.5166516e-07
-8.9325512e-07
0.0030441512
5.2750459e-06
-0.0015353049
-1.1343224e-08
0.0015324436
2.8721959e-06
-0.0030248823
8.1529203e-07
-1.0027169e-06
0.0030195424
5.5295929e-06
-0.0015191757
-1.0114045e-06
0.0015035581
1.6629326e-05
1.7588621e-06
-0.0029868301
-2.258275e-06
0.0029537003
3.3630449e-05
-9.5982094e-06
-9.6699728e-05
2.5620093e-05
0.0033562887
1.4188744e-05
-2.1142157e-05
-1.6163356e-05
1.4348539e-05
0.0029642559
3.995032e-05
-3.0184219e-05
-9.9070648e-06
7.143648e-06
0.0028587664
2.7308068e-05
-1.4622908e-05
5.0778159e-08
-2.1245544e-06
0.0027942615
1.4058515e-05
-3.6918976e-05
9.9437381e-06
-1.1799176e-05
0.0028849734
3.340454e-05
-1.5539404e-05
1.6167344e-05
-1.6038294e-05
0.0030169866
3.6953749e-05
9.6699097e-05
9.2215908e-05
0.0022814132
6.2241196e-05
-0.0033903003
1.1832614e-07
1.9769622e-07
5.4115639e-07
1.3764754e-06
0.0033881037
-7.0043641e-06
-0.011452426
-9.7898558e-06
4.1464923e-05
0.011342025
0.00013264929
-1.7455515e-05
-1.6569656e-06
2.2196491e-06
-2.8249524e-05
-2.8812509e-06
1.2771234e-06
-2.1859509e-05
-0.011288788
-3.6722999e-05
2.1446515e-05
0.011241142
8.5813712e-05
-1.5032613e-05
5.209568e-06
8.9766438e-06
1.0593939e-05
-0.011108561
-1.8031764e-07
-2.1159408e-05
0.011068758
5.0744772e-05
-2.4530118e-05
-0.011430425
-4.1387627e-05
0.011353296
0.00012333581
3.6630683e-05
-2.2233881e-05
3.251055e-06
2.234939e-06
-0.0028507413
-5.1879983e-06
9.7892442e-06
-6.4719783e-06
2.2654165e-05
0.0028299917
-0.0024321462
-1.9620587e-07
9.0854089e-07
-9.1497877e-07
0.0024323622
7.4377863e-07
-0.0033881124
5.4449069e-07
-1.0033465e-06
0.0033897991
-1.9337779e-06
3.1520664e-06
3.5999734e-07
-0.011289912
5.1087594e-07
0.011274366
-4.9146466e-06
9.3526937e-08
5.4206637e-06
7.8189244e-06
3.1154948e-06
-8.4512742e-06
8.6178324e-06
-1.5780329e-07
-1.867944e-06
-0.01120274
1.9171977e-06
0.011190227
-1.1254195e-05
-1.4557473e-06
1.2011356e-05
1.3513898e-05
2.4687703e-05
-0.011047954
-3.8455383e-08
-1.802703e-06
0.01104267
-1.7353446e-05
-7.3277213e-07
-0.011303843
-4.3802802e-07
0.011288037
-5.1572337e-06
1.8221543e-06
3.852439e-07
1.0652465e-05
9.4583962e-06
2.1058536e-06
-0.0028187799
-3.6267188e-07
9.0837077e-07
0.0028159085
2.5533069e-07
-0.0024343818
-5.4514437e-07
2.7482689e-07
0.0024360929
-1.4254996e-06
1.6196994e-06
-0.0034002033
1.3343504e-06
-2.6657243e-06
0.0034051093
-5.1564979e-06
9.418097e-06
4.2511179e-06
-0.011280471
-1.8729571e-05
0.011302714
-6.5459069e-05
8.1832541e-06
1.1045171e-05
1.3149567e-05
6.323972e-06
-2.1043509e-06
1.1845417e-05
1.069729e-05
1.4012839e-05
-0.011194664
-7.1514038e-06
0.011212995
-8.6093283e-05
9.5694687e-06
1.9618912e-05
2.121361e-05
6.5133288e-05
-0.011049688
1.1252812e-08
7.1894199e-06
0.011068481
-9.0897672e-05
9.192189e-06
-0.011292574
1.879346e-05
0.011312515
-7.686872e-05
-1.4025593e-05
9.9384058e-06
1.7285451e-05
1.5922199e-05
6.5387914e-06
-0.00282356
-4.2551873e-06
3.9650325e-06
0.0028249854
-7.6416778e-06
-0.0024442428
-1.3401038e-06
7.2439386e-07
0.0024479651
-3.0949354e-06
2.7567789e-06
-0.0034254089
2.4014612e-06
-4.757103e-06
0.0034342119
-9.1737718e-06
1.7050131e-05
8.4353484e-06
-0.011339776
-3.7336918e-05
0.011392504
-0.00012694886
1.6822719e-05
1.8722507e-05
2.112937e-05
1.0418889e-05
2.9716473e-06
1.6182972e-05
2.3082788e-05
2.8718289e-05
-0.011244749
-1.5102133e-05
0.011291204
-0.00016980503
2.2430003e-05
3.1235857e-05
3.3199833e-05
0.00011944154
-0.011099421
4.3158596e-08
1.5093792e-05
0.011144296
-0.00017918742
2.0055306e-05
-0.011346769
3.7385821e-05
0.011396306
-0.0001514201
-2.8700231e-05
2.0336083e-05
2.7348023e-05
2.5635059e-05
1.1795989e-05
-0.002842004
-8.4387935e-06
7.3489756e-06
0.0028470989
-1.5778596e-05
-0.0024628992
-2.4156786e-06
1.3323149e-06
0.002469317
-5.3272186e-06
4.3999856e-06
-0.0034682603
3.9917854e-06
-7.818695e-06
0.0034827018
-1.5003442e-05
2.8126906e-05
1.4337385e-05
-0.011463263
-6.2736352e-05
0.011555352
-0.00021232565
2.8854693e-05
3.0066929e-05
3.3241799e-05
1.6394142e-05
9.3681947e-06
2.2753779e-05
4.0463986e-05
4.8606863e-05
-0.011354714
-2.5747536e-05
0.011438881
-0.00028803754
4.0314506e-05
4.8916744e-05
5.1536457e-05
0.00019818322
-0.011205488
9.895606e-08
2.563488e-05
0.011286829
-0.00030496687
3.519563e-05
-0.011463512
6.2732416e-05
0.011551773
-0.00025543701
-4.8512633e-05
3.4896478e-05
4.2667968e-05
4.0384556e-05
1.9397176e-05
-0.0028755302
-1.4335345e-05
1.216887e-05
0.0028854867
-2.7170287e-05
-0.0024940864
-4.0202679e-06
2.2388167e-06
0.0025044832
-8.6107136e-06
6.6971158e-06
-0.0035366602
6.2969288e-06
-1.2180609e-05
0.0035590947
-2.3228279e-05
4.3902241e-05
2.2637493e-05
-0.011673035
-9.8577311e-05
0.011821023
-0.0003335488
4.584889e-05
4.6122507e-05
5.0581652e-05
2.4753983e-05
1.8216279e-05
3.224665e-05
6.5156068e-05
7.6769266e-05
-0.011548176
-4.087499e-05
0.011688179
-0.00045889729
6.5663163e-05
7.4390339e-05
7.8046363e-05
0.00031093266
-0.011392733
2.2490191e-07
4.0520711e-05
0.011529107
-0.00048767918
5.6626823e-05
-0.011665581
9.8454215e-05
0.011810027
-0.00040453655
-7.6516827e-05
5.5512006e-05
6.4715583e-05
6.1528604e-05
3.0205726e-05
-0.0029303304
-2.2625485e-05
1.8964652e-05
0.002947105
-4.3310018e-05
-0.0025435966
-6.3255472e-06
3.5416671e-06
0.0025596324
-1.3270523e-05
9.6119746e-06
-0.0036400917
9.2524981e-06
-1.7795102e-05
0.0036727818
-3.376901e-05
6.4330196e-05
3.3236829e-05
-0.012004409
-0.00014494025
0.012227478
-0.00049201685
6.7918381e-05
6.6490291e-05
7.2822683e-05
3.5158156e-05
2.9745751e-05
4.4589037e-05
9.7522684e-05
0.00011360869
-0.011864935
-6.0675661e-05
0.012084805
-0.00068854785
9.8963046e-05
0.00010734859
0.0001125105
0.00045884068
-0.011702071
4.9830313e-07
6.0010529e-05
0.011918645
-0.0007352252
8.4668966e-05
-0.011990822
0.00014470122
0.01221326
-0.00060267052
-0.00011297689
8.2385003e-05
9.3226013e-05
8.8706584e-05
4.4188202e-05
-0.0030147653
-3.3189999e-05
2.764514e-05
0.0030404705
-6.4344729e-05
-0.0026181912
-9.284775e-06
5.2345508e-06
0.0026414531
-1.9248169e-05
1.266834e-05
-0.0037857153
1.2323819e-05
-2.3692681e-05
0.0038292731
-4.4896433e-05
8.6133377e-05
4.4178555e-05
-0.012493115
-0.00019421001
0.012801017
-0.00066423226
9.1759312e-05
8.7317249e-05
9.5987367e-05
4.533055e-05
4.2290765e-05
5.7632961e-05
0.00013282056
0.00015304352
-0.012352632
-8.2191729e-05
0.012670545
-0.00094783642
0.00013553173
0.00014195555
0.00014902735
0.0006195228
-0.012184045
8.8268736e-07
8.0733203e-05
0.012501154
-0.0010179566
0.00011525251
-0.012481396
0.00019368141
0.012796091
-0.00082326531
-0.00015196935
0.00011145043
0.00012323779
0.00011700898
5.9239956e-05
-0.0031362823
-4.4129756e-05
3.6691222e-05
0.0031717323
-8.7294461e-05
-0.0027228797
-1.2382994e-05
7.0505398e-06
0.0027537563
-2.5601972e-05
1.4716562e-05
-0.0039707179
1.4254605e-05
-2.7571008e-05
0.0040216291
-5.2376146e-05
0.00010078242
5.0798169e-05
-0.013145397
-0.00022505952
0.013513143
-0.00078008082
0.00010831191
9.9516361e-05
0.00011032909
5.0298072e-05
5.1139704e-05
6.5976198e-05
0.00015705935
0.00017770256
-0.0130341
-9.5837453e-05
0.01343345
-0.001134394
0.00016118673
0.00016292765
0.00017180894
0.00072656652
-0.012866405
1.4603639e-06
9.3255324e-05
0.013272764
-0.0012278807
0.00013665647
-0.013152346
0.00022424344
0.013537225
-0.0009774638
-0.00017602154
0.00013131298
0.00014197618
0.00013408483
6.9804916e-05
-0.0032944827
-5.0771141e-05
4.2404801e-05
0.0033367652
-0.00010380355
-0.0028554015
-1.4377844e-05
8.3245676e-06
0.0028913607
-2.9984703e-05
1.4132231e-05
-0.0041728822
1.3392544e-05
-2.6341227e-05
0.0042219569
-5.0335451e-05
9.602123e-05
4.6811101e-05
-0.013883922
-0.00021007377
0.014233218
-0.00073731411
0.00010430046
9.1394762e-05
0.00010296216
4.4265729e-05
4.9317118e-05
6.2532012e-05
0.0001490294
0.00016597662
-0.013849438
-9.0090049e-05
0.014250802
-0.0010891984
0.00015402216
0.00014943467
0.00015895934
0.00068283842
-0.013700152
1.7666792e-06
8.7088635e-05
0.014115291
-0.001187385
0.00013115133
-0.013931528
0.00020932217
0.014308438
-0.00093421719
-0.00016426231
0.00012506311
0.00013200756
0.00012345076
6.8018406e-05
-0.0034708025
-4.6829361e-05
3.9805981e-05
0.0035111924
-0.00010148124
-0.0029997678
-1.3594859e-05
8.1515934e-06
0.0030343983
-2.9255664e-05
1.021582e-05
-0.0043507759
9.3009517e-06
-1.9008342e-05
0.0043866899
-3.6498943e-05
6.7745685e-05
3.0815351e-05
-0.014537216
-0.00014790295
0.01477831
-0.00050961669
7.4927998e-05
6.1340571e-05
7.159971e-05
2.7456336e-05
3.5019506e-05
4.7019774e-05
0.0001024805
0.00011853067
-0.014605132
-6.5782831e-05
0.014877024
-0.00074364868
0.00010732719
0.00010005732
0.00010861388
0.00046988481
-0.014478415
3.0791349e-06
6.0761257e-05
0.014746675
-0.00080257626
9.2580888e-05
-0.014639666
0.00014737763
0.014902264
-0.00064783678
-0.00011620885
8.7090438e-05
9.0825238e-05
8.3000625e-05
5.0765569e-05
-0.0036256936
-3.0891813e-05
2.737614e-05
0.0036533492
-7.4996106e-05
-0.0031267287
-9.5385999e-06
6.233035e-06
0.0031522232
-2.2236702e-05
4.5142915e-06
-0.0044664095
3.8836444e-06
-8.8764667e-06
0.0044838107
-1.6967093e-05
2.9623895e-05
1.0312094e-05
-0.014949492
-6.8141674e-05
0.015050132
-0.00021637282
3.4594265e-05
2.4573121e-05
3.2373129e-05
8.337804e-06
1.5680526e-05
2.8041148e-05
4.1790022e-05
5.8776119e-05
-0.015045116
-3.8691679e-05
0.015112603
-0.00026489475
4.5509737e-05
4.158274e-05
4.8067595e-05
0.00020280733
-0.014900426
7.391803e-06
2.6310982e-05
0.014947535
-0.00028403548
4.0619936e-05
-0.015080031
6.6154418e-05
0.015170985
-0.00025694418
-5.206342e-05
3.649548e-05
4.0344222e-05
3.4060024e-05
2.6029334e-05
-0.0037230116
-1.0374775e-05
1.0762195e-05
0.0037337806
-3.7239992e-05
-0.0032096178
-4.1000727e-06
3.5167504e-06
0.003222221
-1.2037249e-05
-4.9215377e-07
-0.0045115469
-3.9736634e-07
-4.0057391e-07
0.0045133786
-5.6601844e-07
-1.1119612e-06
-5.3580092e-06
-0.015087542
-9.9830278e-06
0.015071813
2.4802775e-05
1.5559354e-06
-3.3426304e-06
1.8968253e-06
-5.0538862e-06
-6.1885111e-07
1.2757489e-05
-4.8005777e-06
1.5119179e-05
-0.01509432
-1.8988685e-05
0.015004383
0.00010009843
-3.0079355e-06
-1.2794462e-06
2.5904438e-06
-8.1083487e-06
-0.014903056
1.4080175e-05
-5.4866905e-06
0.014783833
0.00011851203
-2.5284094e-07
-0.015185232
3.5879236e-06
0.015136071
4.6821816e-05
4.3473222e-07
-2.6813814e-06
2.7637309e-06
-1.6965369e-06
4.9858241e-06
-0.0037577147
5.4987687e-06
-2.5781085e-06
0.0037553127
-5.5253467e-06
-0.0032425103
2.3887914e-07
1.1970098e-06
0.0032441542
-3.0756921e-06
-3.5969561e-06
-0.0045041293
-2.6233037e-06
4.5266065e-06
0.0044965888
9.2210475e-06
-1.8351014e-05
-1.2555854e-05
-0.015013706
2.4645287e-05
0.014923528
0.0001658229
-1.7802007e-05
-1.8207872e-05
-1.5285012e-05
-1.0483869e-05
-1.0919255e-05
3.229166e-06
-3.1938651e-05
-1.0560033e-05
-0.014859251
-9.7667586e-06
0.014676485
0.000317851
-3.2376905e-05
-2.5951368e-05
-2.4592124e-05
-0.00013460709
-0.014611243
2.1772134e-05
-2.9269697e-05
0.014404647
0.00034859557
-2.4396573e-05
-0.015035841
-3.842436e-05
0.014896682
0.00022941963
3.8130824e-05
-2.493786e-05
-1.9109706e-05
-2.1587795e-05
-7.9253614e-06
-0.0037482417
1.3192142e-05
-9.575493e-06
0.0037384353
1.411039e-05
-0.0032378594
2.5434578e-06
-2.7389988e-07
0.0032328425
2.7585599e-06
-4.8359205e-06
-0.0044682436
-3.157904e-06
6.2686241e-06
0.0044567942
1.3171019e-05
-2.5291994e-05
-1.36252e-05
-0.014808672
3.7499967e-05
0.014675821
0.00023721736
-2.6615071e-05
-2.3909068e-05
-2.2898721e-05
-1.0735536e-05
-1.6717869e-05
-2.1098506e-06
-4.3627969e-05
-1.9281367e-05
-0.014472266
-7.667476e-06
0.014259905
0.00040227963
-4.5820139e-05
-3.6627752e-05
-3.6939481e-05
-0.00018763791
-0.014181611
2.9302003e-05
-4.609543e-05
0.013956409
0.00042959536
-3.5586833e-05
-0.014730955
-6.1059012e-05
0.014549677
0.00031112289
6.0076904e-05
-3.4416599e-05
-2.9043335e-05
-2.9822523e-05
-1.3687354e-05
-0.0037151218
1.5191737e-05
-1.1438214e-05
0.0037018913
2.3169584e-05
-0.0032126189
3.1667743e-06
-9.9211158e-07
0.0032047313
5.725736e-06
-4.9179223e-06
-0.0044223755
-2.8101365e-06
6.0966015e-06
0.0044103703
1.3638973e-05
-2.6596176e-05
-1.1644028e-05
-0.0145312
3.7463903e-05
0.014380574
0.00026201348
-2.9288553e-05
-2.4800689e-05
-2.5040231e-05
-8.560082e-06
-1.8990462e-05
-3.9374857e-06
-4.705899e-05
-1.8528517e-05
-0.01404909
-9.5202505e-06
0.013846159
0.00040769819
-5.0074193e-05
-3.9239393e-05
-4.0361557e-05
-0.00020699041
-0.013738177
3.591238e-05
-5.7458678e-05
0.013532383
0.00043432314
-3.8515386e-05
-0.01436249
-7.2133679e-05
0.01417667
0.0003232401
7.2243894e-05
-3.6271526e-05
-3.1382226e-05
-3.1344311e-05
-1.4940031e-05
-0.0036707659
1.4616258e-05
-1.0576603e-05
0.00365587
2.5802784e-05
-0.0031799873
2.909915e-06
-1.2644385e-06
0.0031716548
6.6975613e-06
-4.4638381e-06
-0.0043770745
-2.2163747e-06
5.0166e-06
0.0043660896
1.2656426e-05
-2.5514247e-05
-8.9072292e-06
-0.014228776
3.1742055e-05
0.014079938
0.0002563706
-2.901187e-05
-2.3752326e-05
-2.4426288e-05
-6.0063228e-06
-1.8519765e-05
-3.126534e-06
-4.7055823e-05
-1.3347225e-05
-0.013655792
-1.3790061e-05
0.013480509
0.00037960501
-5.0568282e-05
-3.9191234e-05
-4.0366898e-05
-0.00020378417
-0.013342114
4.1348801e-05
-6.4373722e-05
0.013168911
0.00040002129
-3.7682087e-05
-0.013996947
-7.7440008e-05
0.013827096
0.00030092496
7.8756888e-05
-3.4881578e-05
-3.0259095e-05
-2.9542611e-05
-1.4245986e-05
-0.0036206349
1.3644006e-05
-9.1859374e-06
0.0036048534
2.5576813e-05
-0.0031477186
2.4235774e-06
-1.3171271e-06
0.0031401271
6.4855238e-06
-3.858375e-06
-0.0043363061
-1.7009509e-06
3.8370191e-06
0.0043265935
1.1442339e-05
-2.3712477e-05
-6.5768191e-06
-0.013937004
2.3301228e-05
0.013803018
0.00023508824
-2.7783642e-05
-2.1993571e-05
-2.2740795e-05
-3.8464989e-06
-1.6860428e-05
-8.756497e-07
-4.610599e-05
-5.920936e-06
-0.013321737
-1.8928286e-05
0.013180411
0.00033717221
-4.9500674e-05
-3.7308544e-05
-3.8072736e-05
-0.00018902166
-0.013013427
4.5653064e-05
-6.8243339e-05
0.012875785
0.00034926685
-3.639061e-05
-0.013669972
-7.9204895e-05
0.013527427
0.00026559725
8.1294423e-05
-3.3206156e-05
-2.8177863e-05
-2.7343277e-05
-1.33269e-05
-0.0035674879
1.3288534e-05
-8.4675333e-06
0.0035513984
2.4601294e-05
-0.0031190815
2.08256e-06
-1.3121268e-06
0.0031125498
5.7555812e-06
-3.3978039e-06
-0.0043002918
-1.2070298e-06
2.7147595e-06
0.0042915831
1.0599579e-05
-2.235353e-05
-4.7312219e-06
-0.013681483
1.1074489e-05
0.013576975
0.00020192706
-2.7074262e-05
-2.0438749e-05
-2.0240512e-05
-1.7868135e-06
-1.4934778e-05
3.0826019e-06
-4.4484672e-05
4.9407608e-06
-0.013057445
-2.6045181e-05
0.012954463
0.00028269005
-4.7640624e-05
-3.318135e-05
-3.3285445e-05
-0.00016794106
-0.012755834
4.9005674e-05
-6.8276418e-05
0.012653947
0.00028911528
-3.4991621e-05
-0.013401504
-7.6000381e-05
0.013295429
0.00021824742
7.8653982e-05
-3.1707076e-05
-2.4402923e-05
-2.3701383e-05
-1.2375519e-05
-0.0035149876
1.3410272e-05
-8.5965729e-06
0.0034996441
2.2910815e-05
-0.0030945519
1.9567118e-06
-1.2789513e-06
0.0030889216
4.9493186e-06
-3.135473e-06
-0.0042681027
-5.3275941e-07
1.4865186e-06
0.0042604941
9.7896488e-06
-2.0430505e-05
-1.9885805e-06
-0.013497708
-1.5974831e-05
0.013461499
0.00012571168
-2.6421355e-05
-1.6734465e-05
-1.2960873e-05
2.8235063e-06
-1.151779e-05
1.3728533e-05
-4.2533399e-05
2.9503631e-05
-0.012875374
-4.2202042e-05
0.012829718
0.00019582138
-4.5984204e-05
-2.3813026e-05
-2.5114465e-05
-0.00014800617
-0.012571337
5.1593557e-05
-5.7894301e-05
0.012511359
0.00021431072
-3.3049523e-05
-0.013215734
-5.6887014e-05
0.013177161
0.00012590239
6.0999032e-05
-2.9687231e-05
-1.4600427e-05
-1.407679e-05
-1.0484548e-05
-0.0034698917
1.2593616e-05
-8.1613624e-06
0.0034578741
1.8074493e-05
-0.0030732582
1.9624692e-06
-1.2832245e-06
0.003068354
4.2228208e-06
-7.0159713e-06
-2.4673585e-06
-0.004242608
3.8673743e-06
0.0042333788
1.4845884e-05
-1.1869662e-05
1.3204635e-05
-7.5001388e-05
-5.7360563e-05
-1.723672e-05
7.4535909e-07
2.45342e-05
-0.013492254
0.0034631268
0.0034134312
0.003366123
0.0032929724
2.4105011e-05
8.9696671e-06
4.6535694e-05
-2.6631253e-05
8.7861382e-05
-6.9995633e-05
0.00010134678
0.0032703809
0.0032177392
0.0031029168
0.0031370267
-0.012796903
-4.1599613e-05
1.8234182e-05
-3.5057694e-07
-0.00014879415
5.3756246e-05
-3.4797506e-05
0.00015125279
0.0031512726
0.0031725653
0.003072473
0.0030596455
-0.012477347
-7.666459e-06
8.4630995e-06
-5.191645e-06
-1.113317e-05
-0.013170352
0.0033319861
0.0033632561
0.0032269251
0.0031848862
-8.1196894e-06
4.4108396e-05
4.2862771e-05
-6.7463238e-06
-0.003464841
-6.0321027e-07
6.8641297e-07
0.0034883217
-1.6813167e-05
5.0033561e-06
-0.0030544516
-6.0058508e-06
0.0030428213
1.2632288e-05
-2.0982522e-05
-2.3084995e-05
1.7468349e-05
0.0030864221
1.6351968e-05
-3.6180355e-05
-2.727496e-05
0.0028567569
2.1685927e-05
2.889154e-05
-1.9004509e-05
-9.0082487e-06
0.0027799952
5.9747625e-06
1.0631331e-05
-6.7496563e-06
-2.0214262e-06
1.2105435e-06
0.0027620284
3.34105e-06
-3.4165921e-06
4.6624201e-09
-3.4600181e-07
0.0027587299
1.6510965e-06
-8.7692218e-06
2.0249267e-06
-2.7562346e-06
0.0027637668
4.4379034e-06
-2.386533e-05
9.0089054e-06
-1.2117428e-05
0.0027902197
1.4084799e-05
-3.4875884e-05
2.7251311e-05
-2.9312547e-05
0.0028996003
3.3513891e-05
-2.2680615e-05
2.3459341e-05
-3.0838269e-06
0.0031992257
2.7723451e-05
-0.002894414
-1.3254834e-06
-1.4293614e-06
6.8762839e-06
6.9234669e-06
0.0028834024
-0.00011975705
-0.011354966
-9.438698e-05
9.7431144e-05
0.011340764
0.0001311196
-0.011221229
-0.00013572652
-7.894977e-05
5.6748435e-05
0.011276232
0.00010317843
-0.011116565
-8.0714668e-05
-3.6255231e-05
1.7581304e-05
0.01115843
5.7770444e-05
-0.011089612
-5.943611e-05
-1.0142683e-08
-1.7486932e-05
0.011122411
4.4372952e-05
-0.011159493
-0.00011028751
3.6241934e-05
-5.6646028e-05
0.011210982
7.9445678e-05
-0.00014745944
-0.011289481
7.8887146e-05
-9.7118613e-05
0.011332638
0.00012279236
-0.011517921
-3.0804523e-05
0.011414668
0.00011621781
9.3294404e-05
-1.192206e-05
-2.4908892e-06
-3.3146126e-06
-1.4838717e-05
-4.2358805e-05
-3.1473563e-06
2.8174696e-06
-0.0032356823
1.5248327e-07
1.7534626e-06
2.7739545e-07
2.021087e-06
0.0032315123
1.6054184e-06
1.5286185e-06
-0.0028757546
-1.5849273e-06
0.0028758889
-1.6502519e-06
-5.6706282e-07
-3.9704695e-06
-0.011297928
1.3165474e-05
0.011271961
1.7577439e-05
-1.4323198e-05
-0.011304833
-1.7257634e-05
1.5342943e-05
0.011298478
2.2882916e-05
-1.6463476e-06
-0.011186076
-1.0522237e-05
5.9015492e-06
0.011200094
-7.4777669e-06
8.1436408e-06
-0.011144873
-1.7642938e-08
-5.7830791e-06
0.011159752
-1.6950862e-05
-1.1479736e-05
-0.01124485
1.0491056e-05
-1.5238258e-05
0.011253191
8.1716751e-06
-9.646551e-06
-0.011331014
1.7256537e-05
-1.3162816e-05
0.011310372
2.650045e-05
-1.289659e-06
-0.011348098
0.011320714
3.5816947e-06
3.2295459e-06
2.6234718e-06
4.8340743e-06
5.3495791e-06
1.1981161e-06
6.03331e-06
1.2427655e-05
-1.038477e-05
7.8099688e-07
-0.0032310761
-1.28024e-06
5.6732994e-07
0.0032319936
-9.5214677e-07
4.0495766e-06
3.9362005e-06
-0.0028831766
-5.7443362e-06
0.0028868522
-5.8822893e-06
5.536941e-05
4.2646598e-05
-0.011267746
-4.460737e-05
0.011280868
-6.6247177e-05
8.2846406e-05
-0.011292956
4.238917e-05
-3.5498052e-05
0.011298191
-9.4637317e-05
0.00010581545
-0.011198373
2.5673808e-05
-1.3291661e-05
0.011200371
-0.00011989835
0.00011174578
-0.011160833
2.2574191e-10
1.3385881e-05
0.011162579
-0.00012657673
9.5406246e-05
-0.011249597
-2.5689151e-05
3.5616629e-05
0.011252847
-0.00010825879
6.9834612e-05
-0.011304928
-4.2397532e-05
4.4641213e-05
0.011313635
-8.0432142e-05
1.0024779e-05
-0.011321391
0.011337966
-5.1990434e-05
-4.3365848e-05
9.7838773e-06
1.0536195e-05
1.135085e-05
7.7746759e-06
1.1483089e-05
1.7732903e-05
3.2011877e-07
1.5563349e-06
-0.003242575
-3.701005e-06
1.2993543e-06
0.0032466318
-3.1745051e-06
7.0763803e-06
6.912983e-06
-0.002903447
-1.0487693e-05
0.0029106791
-1.0690478e-05
0.00010943044
8.6868946e-05
-0.011308844
-9.7265158e-05
0.011352756
-0.00014261277
0.0001752762
-0.011314044
9.7185579e-05
-8.510478e-05
0.011342007
-0.00021490968
0.00022364207
-0.011207896
6.3277105e-05
-3.3658976e-05
0.011223107
-0.00026813012
0.00023467522
-0.011168329
2.8009666e-08
3.3724932e-05
0.011180553
-0.00028029482
0.00020294701
-0.011263898
-6.3270538e-05
8.5245882e-05
0.011284667
-0.00024530159
0.00014415235
-0.011335332
-9.7213751e-05
9.7343735e-05
0.011371362
-0.00017989115
1.9705811e-05
-0.011373576
0.01142303
-0.00010470435
-8.7609967e-05
1.7644301e-05
1.8733376e-05
1.9114446e-05
1.48837e-05
1.8503077e-05
2.5281311e-05
9.2184519e-06
2.5709837e-06
-0.0032668494
-6.6863692e-06
2.2704964e-06
0.0032746127
-5.8896213e-06
1.1452198e-05
1.1224093e-05
-0.0029390891
-1.7255627e-05
0.0029512493
-1.7537468e-05
0.00018296373
0.00014635021
-0.011413966
-0.00016710733
0.01149655
-0.00024443064
0.00030118656
-0.011384092
0.00016988193
-0.0001511655
0.011444625
-0.00037993941
0.00039026159
-0.011248442
0.00011370472
-6.1025632e-05
0.011288338
-0.00048240592
0.00041084203
-0.011201729
9.1628496e-08
6.1006696e-05
0.011236359
-0.0005061068
0.0003519982
-0.011317354
-0.00011361788
0.00015128986
0.011366436
-0.00043825623
0.0002445767
-0.011423279
-0.00016989234
0.00016722389
0.011495472
-0.00031357019
3.2144284e-05
-0.01149388
0.011583668
-0.00017564546
-0.00014713119
2.8706586e-05
3.1136671e-05
3.0419992e-05
2.4867357e-05
2.8721427e-05
3.6730854e-05
2.0515831e-05
4.0469074e-06
-0.0033080861
-1.1015013e-05
3.7091137e-06
0.0033211723
-9.809389e-06
1.7596076e-05
1.7296551e-05
-0.0029965458
-2.6793696e-05
0.0030156281
-2.7163827e-05
0.00028633337
0.0002297736
-0.01160444
-0.00026606215
0.011744062
-0.00038929234
0.00048283854
-0.011528809
0.00027435406
-0.00024760441
0.01164487
-0.00062505748
0.00063765298
-0.011348634
0.00018838958
-0.0001019486
0.01143877
-0.00081360416
0.00067440852
-0.011290265
2.5196955e-07
0.00010171446
0.011373209
-0.00085861929
0.00057048933
-0.011437438
-0.00018811979
0.00024768884
0.011539367
-0.00073130964
0.00038730186
-0.011592314
-0.00027436377
0.00026622529
0.011721387
-0.00050757833
4.9284548e-05
-0.011702262
0.011848689
-0.00027518076
-0.00023061156
4.4234024e-05
4.8833607e-05
4.6230752e-05
3.8863136e-05
4.3017049e-05
5.3123123e-05
3.603365e-05
6.1246069e-06
-0.0033737629
-1.7101935e-05
5.7454985e-06
0.003394339
-1.534595e-05
2.5389268e-05
2.5022854e-05
-0.0030838885
-3.8998502e-05
0.0031119163
-3.9464504e-05
0.00042013361
0.00033766309
-0.011921139
-0.00039691487
0.012143023
-0.00058223424
0.00072901162
-0.011802346
0.00041618773
-0.00038192303
0.012014176
-0.00097445102
0.00098693206
-0.011571357
0.00029471754
-0.00016113485
0.011763343
-0.0013118336
0.0010504124
-0.011498225
6.4148209e-07
0.00016034349
0.011683053
-0.001395498
0.00087366606
-0.011683387
-0.00029410354
0.00038200833
0.011884886
-0.0011623604
0.00057610895
-0.01188995
-0.00041627611
0.00039724772
0.012108267
-0.00077477573
7.1344831e-05
-0.012033826
0.012256265
-0.00040410485
-0.00033861057
6.4053878e-05
7.1434551e-05
6.5980738e-05
5.6705906e-05
6.0859746e-05
7.4157296e-05
5.599102e-05
8.7560843e-06
-0.003472768
-2.4846896e-05
8.3629242e-06
0.0035029207
-2.2436491e-05
3.3499468e-05
3.3069486e-05
-0.0032075938
-5.1836487e-05
0.0032452098
-5.2398705e-05
0.00056342964
0.00045273103
-0.012414458
-0.00054137787
0.012738602
-0.00079882384
0.0010115657
-0.012292442
0.00057786289
-0.00053948415
0.012652145
-0.0014095999
0.001411278
-0.012039302
0.00042211328
-0.00023410025
0.012455279
-0.002015281
0.0015159881
-0.011959186
1.2308854e-06
0.00023225692
0.012390369
-0.0021806544
0.0012333123
-0.012160506
-0.00042126145
0.00053957139
0.012545559
-0.0017366257
0.00078555259
-0.012384592
-0.00057839464
0.00054210584
0.012725534
-0.0010899543
9.5095335e-05
-0.012524985
0.012833618
-0.00054246997
-0.00045410735
8.4860002e-05
9.4878005e-05
8.5748312e-05
7.5383657e-05
7.8679003e-05
9.6147419e-05
7.7458469e-05
1.1487569e-05
-0.0036116824
-3.2948515e-05
1.1124615e-05
0.0036519047
-2.9925817e-05
3.8789669e-05
3.8310156e-05
-0.0033657322
-6.0389352e-05
0.0034099478
-6.1036495e-05
0.00065865812
0.00052758298
-0.013110731
-0.00063980955
0.013518948
-0.00095501666
0.0012268002
-0.013117999
0.00069823979
-0.00067544366
0.013690977
-0.0018231009
0.0017956176
-0.013033005
0.00055263659
-0.00031733747
0.01367572
-0.0026741608
0.0019568019
-0.012982274
6.2313856e-06
0.0003079493
0.013608741
-0.0028979652
0.0015356751
-0.013079539
-0.00054948224
0.00067655462
0.013716834
-0.0023005665
0.00093298321
-0.013133441
-0.00070067346
0.00064169054
0.013609014
-0.0013499337
0.00011167077
-0.013182687
0.013552802
-0.0006344849
-0.00052986759
9.8251585e-05
0.00010934435
9.6627075e-05
8.7290576e-05
8.8426419e-05
0.00011005295
9.231224e-05
1.3261349e-05
-0.0037874519
-3.8242457e-05
1.2973647e-05
0.0038343691
-3.5012749e-05
3.7113064e-05
3.6610555e-05
-0.0035395266
-5.7916906e-05
0.003582256
-5.8611227e-05
0.00062266484
0.0004959059
-0.013943514
-0.0006101616
0.014354592
-0.00092011803
0.0011922504
-0.014296002
0.00069024712
-0.00068060053
0.014803932
-0.0017105091
0.0017231931
-0.01421624
0.00055011648
-0.00032068996
0.014526136
-0.0022630707
0.0018653918
-0.014101649
3.5771963e-05
0.00025785469
0.014352348
-0.0024102524
0.0015000148
-0.014318951
-0.00050914677
0.00066337635
0.014731539
-0.0020674467
0.00089309906
-0.014128935
-0.00068901727
0.00061351733
0.014630359
-0.001319683
0.00010845765
-0.013929589
0.014280693
-0.00059945564
-0.00049970835
9.2933401e-05
0.00010225935
8.7899506e-05
8.2248193e-05
8.0413707e-05
0.00010420932
8.9036292e-05
1.2692825e-05
-0.0039788636
-3.6624211e-05
1.2564241e-05
0.004023998
-3.3891065e-05
2.7035836e-05
2.6531023e-05
-0.0036928046
-4.1981751e-05
0.0037238146
-4.2677705e-05
0.00043438972
0.00034511714
-0.014716558
-0.00043124093
0.014994271
-0.00062659959
0.00077975166
-0.015103914
0.00047140142
-0.00042922455
0.015157778
-0.000876335
0.00099243376
-0.014552883
0.00033202283
-0.0002102376
0.0143281
-0.00088985541
0.0010374252
-0.014318937
7.6239305e-05
6.9516231e-05
0.014047564
-0.00091222447
0.00093388676
-0.014875458
-0.00022362837
0.00036323342
0.014757291
-0.00095580777
0.00061938916
-0.015026334
-0.00044483114
0.00042788321
0.015254292
-0.00083100368
8.0665022e-05
-0.014588926
0.014829383
-0.00041800207
-0.00034933136
6.5244334e-05
7.1238488e-05
5.836525e-05
5.7104336e-05
5.3728354e-05
7.6455005e-05
6.3448844e-05
9.3515416e-06
-0.0041472963
-2.6611089e-05
9.3545206e-06
0.0041803301
-2.5224572e-05
1.2892193e-05
1.2424624e-05
-0.0037916911
-1.9627153e-05
0.0038062045
-2.0262002e-05
0.00018994618
0.0001545394
-0.015161784
-0.00018407239
0.01521634
-0.00021539416
0.00023355443
-0.014998109
0.00016236441
-0.0001130157
0.014695148
1.9729049e-05
0.0001060753
-0.013939392
7.9516061e-05
-8.0548291e-05
0.013476571
0.00035753487
8.6997666e-05
-0.013624771
0.00010384263
-0.00011538262
0.013138895
0.00041017063
0.00020545325
-0.01444925