/*--------------------------------*- C++ -*----------------------------------*\
| =========                 |                                                 |
| \\      /  F ield         | OpenFOAM: The Open Source CFD Toolbox           |
|  \\    /   O peration     | Version:  2406                                  |
|   \\  /    A nd           | Website:  www.openfoam.com                      |
|    \\/     M anipulation  |                                                 |
\*---------------------------------------------------------------------------*/
FoamFile
{
    version     2.0;
    format      ascii;
    arch        "LSB;label=32;scalar=64";
    class       volVectorField;
    location    "150";
    object      U;
}
// * * * * * * * * * * * * * * * * * * * * * * * * * * * * * * * * * * * * * //

dimensions      [0 1 -1 0 0 0 0];

internalField   nonuniform List<vector> 
71615
(
(0.00081600356 1.0011331 0.0025586886)
(-2.4687413e-05 0.99998684 -2.8873452e-05)
(2.7151462e-05 1.0024921 3.2344694e-05)
(-2.5889123e-05 1.0007932 -0.00019909105)
(-1.7544835e-05 1.0043518 -0.00013983526)
(-5.475791e-06 1.0032318 -0.00042980599)
(-8.0260705e-05 1.008746 -0.0002761098)
(8.3805291e-06 1.0079424 -0.00077211289)
(-0.00018072151 1.0167298 -0.00046882465)
(2.5321216e-05 1.0160856 -0.0013038601)
(-0.00033820523 1.0300801 -0.00075455322)
(4.681743e-05 1.0294962 -0.0021111709)
(-0.00058179383 1.0513288 -0.0011578714)
(7.6119974e-05 1.0507395 -0.0032775579)
(-0.00093250016 1.0833935 -0.0016685373)
(0.00011357527 1.0827618 -0.0048015771)
(-0.0013725469 1.1283948 -0.0021967174)
(0.0001464016 1.1277457 -0.0064489345)
(-0.0018046376 1.1851126 -0.0025222078)
(0.00014166878 1.1845426 -0.0075937102)
(-0.0020525192 1.245965 -0.0023561672)
(7.019432e-05 1.2455924 -0.007331696)
(-0.0019670151 1.2975746 -0.0016389447)
(-5.8891525e-05 1.297338 -0.0053285384)
(-0.0016101726 1.3290121 -0.00072851916)
(-0.00017998801 1.3286431 -0.0025462007)
(-0.0011668828 1.3394723 -5.0306115e-06)
(-0.00024470656 1.3388827 -0.00026398895)
(-0.00077914106 1.3353529 0.00041718705)
(-0.00025945327 1.3345774 0.0010429226)
(-0.00050462757 1.3237917 0.00060166811)
(-0.00025672964 1.3229639 0.0015552888)
(-0.00027149542 1.3100048 0.00062184327)
(-0.00026115184 1.3091985 0.0016853573)
(-9.3863736e-05 1.2967992 0.00056311233)
(-0.00026001155 1.2958737 0.0015929804)
(1.8216585e-06 1.2851434 0.00048264642)
(-0.00026378511 1.2839278 0.0013732366)
(-2.4182875e-06 1.2749408 0.00041464626)
(-0.00029242843 1.2732166 0.0012097553)
(-9.3942288e-05 1.2653428 0.00042475906)
(-0.00038493946 1.2629787 0.0011843632)
(-0.00028747378 1.2551472 0.00050460534)
(-0.00054283689 1.252067 0.0013571325)
(-0.00014845953 1.0000929 0.00067632664)
(-4.7436282e-05 1.0000114 -8.9071703e-05)
(-3.4575748e-05 1.0000143 -0.00017130917)
(5.7356135e-06 1.0000141 -0.00019592419)
(4.3010854e-05 1.0000127 -0.00016519565)
(3.3608979e-05 1.0000168 -9.431319e-05)
(-0.00025649731 0.99987371 -0.00013992042)
(-0.00017992973 1.0012627 -0.00025424382)
(-0.00066698623 1.0009787 -0.0016937463)
(-0.00038737424 1.0008462 -0.0023945972)
(0.00014054374 1.0008068 -0.0024996329)
(0.00058285462 1.000894 -0.0021015849)
(0.00050847829 1.0008156 -0.00097263334)
(0.0001379899 1.0007685 -0.00025521292)
(-0.00044543391 1.0037072 -0.00066873366)
(-0.0014187048 1.00336 -0.0036130264)
(-0.00081035736 1.0029425 -0.0050682032)
(0.00029275922 1.0028274 -0.0052671092)
(0.0012180245 1.0031228 -0.0044466842)
(0.0011651452 1.0031509 -0.0020654458)
(0.000259212 1.0034821 -0.00041766387)
(-0.00084138933 1.0084496 -0.0012627994)
(-0.0025442702 1.0079044 -0.0064642373)
(-0.0014532919 1.0069725 -0.009084036)
(0.0005175051 1.0067168 -0.0094470276)
(0.0021822633 1.0073912 -0.0079580643)
(0.0020725145 1.0076909 -0.0036898455)
(0.00048285612 1.0083858 -0.00068922119)
(-0.0014545537 1.0166859 -0.0021494535)
(-0.0043001512 1.0157936 -0.010875748)
(-0.0024655467 1.0140565 -0.015347187)
(0.00087002594 1.0135755 -0.015988411)
(0.003690089 1.0148459 -0.013416643)
(0.0034557102 1.0155653 -0.0062058291)
(0.00083756154 1.0167436 -0.0011225293)
(-0.0023871392 1.030264 -0.0034712736)
(-0.0069946163 1.0289532 -0.017586798)
(-0.0040364442 1.0260908 -0.024978365)
(0.0014154144 1.0252909 -0.026086273)
(0.0060062615 1.0274022 -0.02176994)
(0.0055352824 1.0286098 -0.010023124)
(0.0013806664 1.0304347 -0.0017824242)
(-0.003730284 1.051706 -0.0053474123)
(-0.010899714 1.0501636 -0.027222382)
(-0.0063501086 1.045991 -0.039028362)
(0.0022164158 1.0448166 -0.040898697)
(0.0093740489 1.0479147 -0.033873982)
(0.0084570464 1.0494266 -0.015502942)
(0.0021637951 1.0519841 -0.0027171173)
(-0.0054667253 1.0838497 -0.0077610004)
(-0.015990768 1.0828798 -0.039648675)
(-0.0094322886 1.0777653 -0.057553872)
(0.0032782692 1.0763181 -0.060600353)
(0.013781257 1.0801287 -0.049695914)
(0.012097601 1.0811216 -0.022614653)
(0.0031711137 1.0841953 -0.0039065772)
(-0.0073009233 1.1286141 -0.010340782)
(-0.02141698 1.1300478 -0.052722557)
(-0.012815338 1.1256257 -0.077636453)
(0.004415266 1.1243606 -0.082268014)
(0.018488189 1.1276523 -0.066666217)
(0.015693296 1.1261762 -0.03027667)
(0.004229263 1.1289254 -0.0051537887)
(-0.0085300165 1.1846076 -0.012147819)
(-0.024910116 1.1910044 -0.060916097)
(-0.015038038 1.1903548 -0.090327824)
(0.0051055745 1.1902725 -0.096225115)
(0.021411796 1.1905484 -0.077495839)
(0.017582006 1.1838614 -0.035638284)
(0.0049159115 1.1846877 -0.0059903471)
(-0.0082134882 1.244429 -0.011865517)
(-0.023386806 1.2567737 -0.056432879)
(-0.014348894 1.2644721 -0.083064981)
(0.0048373509 1.2674384 -0.089411488)
(0.019965878 1.2603019 -0.071483561)
(0.01569853 1.2465837 -0.034664358)
(0.0046621984 1.2441071 -0.0058039978)
(-0.0060631103 1.2954018 -0.0089447466)
(-0.016482897 1.3113726 -0.038189375)
(-0.010647353 1.3285074 -0.057272286)
(0.0032770314 1.3339533 -0.063184859)
(0.014159119 1.3198019 -0.048764739)
(0.0097278161 1.299792 -0.025734827)
(0.0032864274 1.2947532 -0.00439214)
(-0.0030840317 1.3270084 -0.0046449061)
(-0.0076731011 1.3425402 -0.016398072)
(-0.005796652 1.359801 -0.025060334)
(0.0010179094 1.3630124 -0.028872887)
(0.0063637157 1.3522972 -0.021412596)
(0.0024379788 1.3316342 -0.013083633)
(0.0014221708 1.3263321 -0.0024065382)
(-0.00058908046 1.3380343 -0.00086550101)
(-0.00075206187 1.3496516 0.00022416723)
(-0.0022119563 1.35667 0.0014293839)
(-0.0011747717 1.3550317 0.00047492157)
(0.00020226065 1.3552164 2.3426452e-05)
(-0.0029061244 1.3417052 -0.002459974)
(-7.6524046e-05 1.337576 -0.00072203801)
(0.00091540713 1.3343675 0.0015498244)
(0.0031393046 1.3395504 0.0098170323)
(-7.2470438e-05 1.3309127 0.018229271)
(-0.0028883911 1.3238697 0.019277344)
(-0.0041067634 1.3375893 0.013492418)
(-0.0051232681 1.337007 0.0040525345)
(-0.00089721754 1.3341944 0.00037970275)
(0.0015406171 1.3230814 0.0026867105)
(0.0046546299 1.3190931 0.014753988)
(0.00067578768 1.294241 0.025824699)
(-0.0042435683 1.2832858 0.027465233)
(-0.0065691498 1.3080942 0.020272753)
(-0.0051252412 1.3245629 0.006943205)
(-0.0011426667 1.3231206 0.0010044192)
(0.0016505702 1.3093491 0.0030616819)
(0.0047898418 1.2931398 0.016768872)
(0.00066844388 1.256159 0.027843185)
(-0.0052522397 1.2433957 0.030824874)
(-0.0078257461 1.2745631 0.021998199)
(-0.0042666737 1.3083846 0.0075702936)
(-0.0010709981 1.3095218 0.0012934985)
(0.0014899784 1.2960095 0.0029617345)
(0.0042435586 1.2656205 0.016894641)
(0.00030809782 1.2214425 0.027791514)
(-0.0058772922 1.2083065 0.030628333)
(-0.0085096001 1.2420619 0.021398698)
(-0.0035687079 1.2901836 0.0073197711)
(-0.00090438455 1.2963222 0.0013443337)
(0.0012505826 1.2839903 0.0026725816)
(0.0034487495 1.2391021 0.016280805)
(-0.00019295301 1.191803 0.02666657)
(-0.0063401052 1.1790138 0.028762291)
(-0.0089469684 1.2129779 0.020387089)
(-0.0034317813 1.2707563 0.0070524915)
(-0.00077797266 1.2846525 0.0012356482)
(0.00099716237 1.2731225 0.0024816869)
(0.0027117894 1.2149047 0.015751311)
(-0.00072358381 1.167248 0.024964584)
(-0.0066616242 1.1551066 0.026387605)
(-0.0091934243 1.1880028 0.019185618)
(-0.0037647109 1.2510761 0.0069315874)
(-0.00072125317 1.2745076 0.0010634132)
(0.00079837771 1.2625412 0.0024966043)
(0.0021795808 1.1934279 0.015594316)
(-0.001236686 1.1469882 0.02333136)
(-0.006841176 1.135653 0.024229244)
(-0.0093278967 1.1667967 0.018004132)
(-0.0043805217 1.2320186 0.0069969442)
(-0.00075372447 1.2651303 0.00097734173)
(0.00073749744 1.2513274 0.0028031415)
(0.0017795343 1.1738752 0.015797187)
(-0.0016830984 1.1297815 0.022394267)
(-0.0069601395 1.1197462 0.022802139)
(-0.0095587231 1.1480118 0.017461609)
(-0.005103645 1.213904 0.007339593)
(-0.00096924795 1.2552715 0.0010927717)
(-7.3972468e-05 1.0000011 -7.5717397e-05)
(-0.00012593489 1.0000177 -0.00016663353)
(-0.00013274365 1.0000204 -0.00027022151)
(-7.760009e-05 1.0000195 -0.00034054809)
(1.3347752e-05 1.0000157 -0.00036090953)
(9.8225829e-05 1.0000114 -0.00032571708)
(0.00013783517 1.0000083 -0.00024397026)
(0.0001116928 1.0000071 -0.00013528989)
(0.00012404084 0.9999691 -7.3627922e-05)
(-0.00053937756 1.0007277 -0.00055723534)
(-0.0016258503 1.0007953 -0.002196564)
(-0.0016046074 1.0004619 -0.0033834234)
(-0.00085061461 1.0001973 -0.00417247)
(0.00029837112 1.0001327 -0.0043412691)
(0.001309306 1.0003094 -0.0038438096)
(0.0017197959 1.0006334 -0.0028193976)
(0.0013578007 1.0009364 -0.0015679162)
(0.00027445046 1.0006954 -0.00026233736)
(-0.001195053 1.0031448 -0.0012294077)
(-0.0033899316 1.0027973 -0.004588789)
(-0.0033753633 1.0016365 -0.0070966911)
(-0.0017997791 1.0007046 -0.0088036106)
(0.00063109425 1.0004796 -0.0091651849)
(0.0027570981 1.0011055 -0.0080889237)
(0.0036000778 1.0022312 -0.0058993771)
(0.0028804125 1.003269 -0.0033244862)
(0.00062139001 1.0031861 -0.00056798597)
(-0.0021584478 1.00785 -0.0022113256)
(-0.0060538422 1.0066537 -0.0081991739)
(-0.0060919012 1.0039921 -0.012777296)
(-0.0032684207 1.0018229 -0.015950365)
(0.0011445372 1.0012986 -0.016625312)
(0.0049863694 1.002762 -0.014615962)
(0.0064704713 1.0053514 -0.010580889)
(0.0051558762 1.0077395 -0.0059372413)
(0.0011197091 1.0080166 -0.0010187622)
(-0.0036398945 1.0160049 -0.0037144758)
(-0.010227545 1.0134769 -0.013838164)
(-0.010429013 1.0084121 -0.02182464)
(-0.0056506224 1.004198 -0.027505987)
(0.0019776582 1.0031711 -0.028732135)
(0.0085764799 1.0060302 -0.025101045)
(0.011009545 1.0110013 -0.017963162)
(0.0086805239 1.0155247 -0.0099692123)
(0.001879081 1.0163555 -0.0017058917)
(-0.0058750834 1.029456 -0.0059780058)
(-0.016660187 1.0251827 -0.02250642)
(-0.017301209 1.0166356 -0.036127057)
(-0.009513453 1.0092996 -0.0461835)
(0.0033323857 1.0074832 -0.048406557)
(0.014337065 1.0125088 -0.04188591)
(0.018099572 1.0210279 -0.029467627)
(0.014041271 1.0285608 -0.016084487)
(0.0030256358 1.0300491 -0.0027365504)
(-0.0090621666 1.0507568 -0.0091969252)
(-0.026051365 1.0447623 -0.035137735)
(-0.027739618 1.031912 -0.057814926)
(-0.015580123 1.0203643 -0.075440469)
(0.0054694203 1.0174261 -0.079472704)
(0.023251546 1.0254601 -0.067814192)
(0.028657486 1.0385789 -0.046561887)
(0.021728739 1.0496553 -0.024835167)
(0.0046538863 1.051609 -0.0042003872)
(-0.013153024 1.082804 -0.013319119)
(-0.038428194 1.0763918 -0.051779523)
(-0.042300569 1.0598983 -0.088086823)
(-0.024458351 1.044118 -0.11827)
(0.0086126361 1.0398885 -0.12549404)
(0.036025125 1.0511527 -0.10500927)
(0.042984674 1.0685565 -0.069737159)
(0.03162298 1.0823069 -0.036069646)
(0.0067334208 1.0838296 -0.0060658884)
(-0.017466591 1.1276694 -0.017663898)
(-0.051865707 1.1245134 -0.069904346)
(-0.059275836 1.1088782 -0.12381427)
(-0.035431672 1.0936097 -0.171465)
(0.012629979 1.0896229 -0.18370395)
(0.051296862 1.1000808 -0.15026687)
(0.059199238 1.1172375 -0.096063843)
(0.042021702 1.1295262 -0.04783686)
(0.0089062068 1.1285476 -0.0080165659)
(-0.020386005 1.1841084 -0.02060977)
(-0.060742202 1.1901534 -0.082094993)
(-0.072854756 1.1899506 -0.15154221)
(-0.04800325 1.1937502 -0.22540969)
(0.016837602 1.1924617 -0.2461924)
(0.066453187 1.1923658 -0.19129093)
(0.070539631 1.1887511 -0.11455986)
(0.048625313 1.1907323 -0.055252305)
(0.010322733 1.1842652 -0.0093044801)
(-0.019739991 1.2447174 -0.019977479)
(-0.056951176 1.2651087 -0.077194219)
(-0.074138299 1.2964128 -0.15090649)
(-0.047397761 1.2901132 -0.21331997)
(0.012150069 1.2808205 -0.22871844)
(0.064091667 1.2989352 -0.18868854)
(0.068962695 1.2798277 -0.11103642)
(0.045546993 1.2569168 -0.051623244)
(0.0098777991 1.2436232 -0.0089448073)
(-0.014756905 1.2964262 -0.014996764)
(-0.04037232 1.3302094 -0.054528141)
(-0.048906931 1.3505607 -0.094357186)
(-0.028958927 1.2956366 -0.11024634)
(-0.00049837686 1.2760143 -0.11329311)
(0.031794248 1.325284 -0.10870472)
(0.04841227 1.3511993 -0.078115126)
(0.031587047 1.3117061 -0.03550828)
(0.0071430111 1.2942613 -0.0066254776)
(-0.0075977711 1.328212 -0.0078188766)
(-0.019038051 1.3612972 -0.024557314)
(-0.015145546 1.3231983 -0.020916827)
(-0.0078468342 1.2270845 0.0042807479)
(-0.012041187 1.2008487 0.0089229559)
(-0.004961549 1.27145 -0.013185539)
(0.015942585 1.3597139 -0.028480834)
(0.01404245 1.342912 -0.015449671)
(0.0032634195 1.3259141 -0.003377702)
(-0.0014076955 1.3389651 -0.0015776563)
(-0.00067107717 1.3531119 0.0022449433)
(0.0095565138 1.2574252 0.034286604)
(0.0039457358 1.1440679 0.069706373)
(-0.017808834 1.1158598 0.075399464)
(-0.027635978 1.193748 0.048410178)
(-0.01065014 1.3179958 0.010295299)
(0.00040655528 1.3502349 -0.0001229424)
(-4.0037031e-05 1.3372546 -0.00060603492)
(0.0024899271 1.3348546 0.0024127222)
(0.011004668 1.3181867 0.019843198)
(0.020377858 1.191336 0.060443912)
(0.0075417303 1.0785064 0.09227082)
(-0.019366473 1.0520364 0.096698758)
(-0.036058737 1.12651 0.072396848)
(-0.026616621 1.2603926 0.033470339)
(-0.0079685587 1.3391754 0.0090312521)
(-0.0019679528 1.3339324 0.0011074381)
(0.0042554029 1.3231625 0.0043188085)
(0.016360683 1.2734605 0.028668948)
(0.022212737 1.1383532 0.066662156)
(0.0071973335 1.0345225 0.092001803)
(-0.018959383 1.0109436 0.094711018)
(-0.036734924 1.0779318 0.075016823)
(-0.0326162 1.2069013 0.041936809)
(-0.012691932 1.3159297 0.013563475)
(-0.0026268679 1.3228862 0.0019094048)
(0.0046095374 1.3090462 0.0048228379)
(0.017874187 1.2308433 0.031904715)
(0.02010795 1.0994856 0.063443937)
(0.0053412869 1.0066299 0.082577834)
(-0.017764849 0.98598691 0.083975112)
(-0.034233685 1.0450582 0.068350445)
(-0.032998163 1.1635195 0.041719052)
(-0.014844571 1.2861472 0.014904225)
(-0.0025243251 1.309281 0.0021063339)
(0.0041947976 1.2949019 0.0046067761)
(0.016984043 1.1945945 0.031615295)
(0.016762789 1.0716866 0.056764078)
(0.0032094721 0.98926348 0.07103909)
(-0.016403446 0.9712703 0.071499871)
(-0.030777552 1.0231498 0.058973184)
(-0.030978482 1.1300827 0.037786793)
(-0.0155632 1.2551656 0.014568853)
(-0.0021958867 1.2960039 0.0019563249)
(0.003597042 1.2810053 0.0042799144)
(0.015041764 1.1651237 0.02970167)
(0.013446062 1.0517918 0.04963528)
(0.001343489 0.97849046 0.060322159)
(-0.015141098 0.96270992 0.060092918)
(-0.027390078 1.0084568 0.049892997)
(-0.028294539 1.1047597 0.032974842)
(-0.015570261 1.2262386 0.013527783)
(-0.0018524685 1.2841844 0.001636738)
(0.0031465176 1.2667555 0.0042053574)
(0.012958224 1.1414336 0.027376522)
(0.010608175 1.0372626 0.043324802)
(-0.00011796056 0.97168432 0.051350184)
(-0.014040568 0.95772615 0.050631391)
(-0.024466719 0.99835752 0.042199701)
(-0.02573932 1.0854467 0.028506593)
(-0.015487403 1.2007691 0.012562875)
(-0.0016714538 1.2736491 0.0013336121)
(0.0029878173 1.2516823 0.00451901)
(0.011239427 1.1219897 0.025394233)
(0.0083778776 1.0259441 0.038280428)
(-0.0012082718 0.96715069 0.044249464)
(-0.013101834 0.95480541 0.043183578)
(-0.02210087 0.99091998 0.036121274)
(-0.023662187 1.0699514 0.024897695)
(-0.015315405 1.1787415 0.01165678)
(-0.0017520087 1.2634717 0.0012021715)
(0.0032173757 1.2360681 0.0052751002)
(0.010183624 1.1046869 0.024278071)
(0.0067797023 1.0165531 0.034593018)
(-0.0019808429 0.96418376 0.038886523)
(-0.012338994 0.95334118 0.037550551)
(-0.020309323 0.98522371 0.031601728)
(-0.022263313 1.0564572 0.022413143)
(-0.015520198 1.1589008 0.011257294)
(-0.002146005 1.2524669 0.001287538)
(0.00065633801 1.0000861 -0.00014739612)
(-0.00016497624 1.0000178 -0.00012813681)
(-0.00023903978 1.0000228 -0.00024144681)
(-0.00022433743 1.0000225 -0.00034500087)
(-0.00012603189 1.0000176 -0.00041673041)
(2.1423304e-05 1.0000107 -0.00043745096)
(0.00016064027 1.0000052 -0.00040143004)
(0.00023788676 1.0000025 -0.00031858294)
(0.00022724149 1.0000028 -0.00021017316)
(0.00012806283 1.0000049 -9.7101605e-05)
(-0.001220033 1.0006707 0.0011409666)
(-0.00023815198 1.0012459 -0.00020093319)
(-0.0021759959 1.0007944 -0.0016533705)
(-0.0029427366 1.0002726 -0.0029712863)
(-0.0026484755 0.99968199 -0.0041638291)
(-0.0013546578 0.99923798 -0.00495292)
(0.00047203785 0.999136 -0.0051222531)
(0.0021121845 0.99942573 -0.0046222253)
(0.0029380711 0.99997262 -0.0035960638)
(0.0026817401 1.0005552 -0.0023044456)
(0.0015149946 1.0009812 -0.0010434322)
(3.9274563e-05 1.0019888 8.0187423e-05)
(-0.00064234639 1.0036841 -0.00048604183)
(-0.0045509115 1.0027928 -0.0034412667)
(-0.0061885161 1.0009807 -0.006241724)
(-0.0056287304 0.99887338 -0.008836331)
(-0.0029016609 0.99726717 -0.010583977)
(0.0010095488 0.99689771 -0.010961292)
(0.004504964 0.99795236 -0.0098496556)
(0.0062099438 0.99991884 -0.0075966634)
(0.0056172648 1.0019665 -0.0048243986)
(0.0032247263 1.0033907 -0.0022178407)
(0.00017321293 1.0040802 -5.7681698e-05)
(-0.001223156 1.008421 -0.00090469345)
(-0.0081415353 1.0066441 -0.0061331595)
(-0.011182169 1.0024903 -0.011264848)
(-0.010316515 0.99753186 -0.016168702)
(-0.0053784101 0.99366171 -0.019571734)
(0.0018721734 0.99276211 -0.020315988)
(0.0083045286 0.99532434 -0.018133574)
(0.011297137 1.0000092 -0.013806616)
(0.010099676 1.0047579 -0.008667528)
(0.0057663344 1.0079949 -0.0039674484)
(0.00030769073 1.0086836 -0.00018493112)
(-0.0020947301 1.0166481 -0.0015441024)
(-0.013757032 1.0134601 -0.010339816)
(-0.019218901 1.0055378 -0.019337782)
(-0.018104104 0.99574885 -0.028328649)
(-0.0095908247 0.98785305 -0.034824606)
(0.0033451597 0.98598501 -0.036275271)
(0.014700173 0.99127437 -0.032053763)
(0.019618814 1.0006814 -0.023948689)
(0.017202839 1.0098895 -0.014750884)
(0.0096951591 1.0159848 -0.0066699771)
(0.00049784602 1.0168937 -0.00036661253)
(-0.0033995639 1.0302184 -0.0025067456)
(-0.022398656 1.0251575 -0.016812702)
(-0.03210346 1.0117246 -0.032269863)
(-0.031185608 0.99423718 -0.048727409)
(-0.016922581 0.97941849 -0.061325346)
(0.0059269283 0.97581517 -0.064226741)
(0.025661738 0.98591449 -0.055876282)
(0.033277058 1.0031649 -0.040574324)
(0.028338492 1.0191773 -0.024280105)
(0.015656416 1.029296 -0.010770144)
(0.00078067992 1.0305099 -0.00063431567)
(-0.0052593161 1.0516578 -0.0038801875)
(-0.035004148 1.0447272 -0.026256388)
(-0.052018148 1.02436 -0.052249906)
(-0.052820373 0.99568258 -0.082454391)
(-0.029713736 0.96958302 -0.10748133)
(0.010482599 0.96295833 -0.11351475)
(0.044342473 0.98119831 -0.096448727)
(0.055126677 1.0106113 -0.067148327)
(0.045012709 1.0358343 -0.038539856)
(0.024181073 1.0506944 -0.016635151)
(0.0011765519 1.0520368 -0.001014937)
(-0.0076590425 1.0838071 -0.0056470797)
(-0.05162712 1.0763472 -0.038702519)
(-0.080572161 1.0497916 -0.080903299)
(-0.086955127 1.0076101 -0.13586556)
(-0.051402133 0.96566795 -0.18603925)
(0.018407972 0.95503181 -0.19908169)
(0.074897274 0.9843162 -0.16334646)
(0.088082814 1.0302684 -0.10723385)
(0.067858254 1.0650749 -0.058055773)
(0.03511348 1.0835519 -0.024160124)
(0.0016707184 1.0842759 -0.0015142103)
(-0.010233935 1.1285848 -0.0075051291)
(-0.069744692 1.1244634 -0.052233684)
(-0.11558702 1.0983515 -0.11607779)
(-0.14013695 1.0563611 -0.21766617)
(-0.092987168 0.99848755 -0.32886506)
(0.032067981 0.97647627 -0.35634177)
(0.12983241 1.0289824 -0.27918878)
(0.13203755 1.0779675 -0.16069626)
(0.094214378 1.1139329 -0.08048618)
(0.046544906 1.1306175 -0.032027583)
(0.0021574472 1.1291054 -0.0020728957)
(-0.012047005 1.1846059 -0.0087449519)
(-0.081952581 1.1901105 -0.061215523)
(-0.14754155 1.1895205 -0.14822685)
(-0.18788561 1.1429543 -0.2874431)
(-0.11429098 1.0034432 -0.38762616)
(0.029045066 0.96019112 -0.41447495)
(0.15448042 1.0720119 -0.34892566)
(0.17937409 1.1838073 -0.21839654)
(0.113424 1.1880862 -0.096673475)
(0.053732013 1.1910025 -0.036962749)
(0.0024255793 1.1850411 -0.0025073222)
(-0.011782743 1.2444603 -0.0084206189)
(-0.077040593 1.2651145 -0.057533141)
(-0.14543816 1.297602 -0.1435836)
(-0.147665 1.1588166 -0.21491161)
(-0.089915201 0.9655769 -0.265223)
(0.0056855006 0.91381386 -0.28659121)
(0.099266937 1.05331 -0.25359585)
(0.15091944 1.2510265 -0.19172271)
(0.11158019 1.2856747 -0.095435178)
(0.050229745 1.2558144 -0.034554902)
(0.0022047293 1.2446666 -0.0025802638)
(-0.0088894361 1.2954691 -0.0062415331)
(-0.054458854 1.3303187 -0.040799442)
(-0.082705083 1.3176815 -0.075440984)
(-0.051391589 1.0966341 -0.054488228)
(-0.030046254 0.8841214 -0.024637336)
(-0.025013575 0.83275362 -0.025818542)
(0.00012410954 0.97738479 -0.056263785)
(0.052869001 1.2188133 -0.08157884)
(0.075177248 1.3540555 -0.066050724)
(0.034634584 1.3092042 -0.02397061)
(0.0014120928 1.2954374 -0.0022173954)
(-0.0046221515 1.327104 -0.003219726)
(-0.025008316 1.3614382 -0.018540924)
(-0.0078790207 1.2572876 0.0039173104)
(0.026194481 0.99072094 0.071722424)
(0.013922788 0.76837818 0.13758195)
(-0.041550772 0.71480174 0.14720549)
(-0.068076915 0.86448309 0.089295918)
(-0.03301039 1.1277524 0.018098519)
(0.021242938 1.3476304 -0.022428257)
(0.015079804 1.3397023 -0.010695011)
(0.00036208172 1.3270177 -0.0016625721)
(-0.00087616369 1.3381437 -0.00067956068)
(0.00078826052 1.3531015 0.001486196)
(0.036646875 1.1759333 0.050985034)
(0.057881482 0.90751441 0.12215219)
(0.026870324 0.70563877 0.17898809)
(-0.041695519 0.65938554 0.18554784)
(-0.08774542 0.79118156 0.13693968)
(-0.074741794 1.0403821 0.067589287)
(-0.021591551 1.2927402 0.011827025)
(7.0716266e-05 1.3475049 -0.00033852611)
(-0.00051708156 1.3381707 -0.0011673857)
(0.0015087982 1.3344855 0.00087168035)
(0.017105409 1.3179538 0.015021419)
(0.053264509 1.1083984 0.06867866)
(0.061398417 0.86389365 0.1266884)
(0.025347212 0.69391379 0.16602606)
(-0.036876409 0.65638291 0.16857549)
(-0.083526415 0.7647796 0.13383508)
(-0.084806838 0.98160269 0.080215115)
(-0.044525058 1.2294556 0.029512163)
(-0.0086902012 1.3389319 0.0055521156)
(-0.0010228821 1.3346501 -0.00082538308)
(0.0026149913 1.3231882 0.0015378488)
(0.024714115 1.2731089 0.022046151)
(0.05411205 1.0607416 0.069789963)
(0.053937061 0.84727384 0.11335896)
(0.01991404 0.70679943 0.13924208)
(-0.031587255 0.67653493 0.13919644)
(-0.072260164 0.76470128 0.11453832)
(-0.079933522 0.94807647 0.075311882)
(-0.051524554 1.1750746 0.034287199)
(-0.013222036 1.3199449 0.0079244596)
(-0.0011697209 1.3234626 -0.0005455036)
(0.0029569264 1.3094403 0.00168671)
(0.026934228 1.2304599 0.024867624)
(0.048376382 1.0292575 0.063904914)
(0.043951149 0.84498895 0.095941997)
(0.014367536 0.72816254 0.11293186)
(-0.026999113 0.7033904 0.11144541)
(-0.060579806 0.77595921 0.093329108)
(-0.070146481 0.93085216 0.064543338)
(-0.050431239 1.1332235 0.032666833)
(-0.01522672 1.294941 0.0084921804)
(-0.0010557972 1.309805 -0.00033145193)
(0.002815573 1.2960818 0.0015787221)
(0.025856507 1.1942202 0.024959443)
(0.040896677 1.0089006 0.056074174)
(0.034672644 0.8492682 0.079692494)
(0.0097630537 0.75064776 0.090962436)
(-0.023271404 0.72996209 0.088719576)
(-0.050502677 0.79079648 0.074835603)
(-0.059936754 0.92294285 0.053226581)
(-0.046101664 1.1021982 0.028653949)
(-0.015583972 1.267697 0.0080988781)
(-0.0008676962 1.2966034 -0.00019604572)
(0.0024785579 1.2840394 0.0014280682)
(0.023374609 1.164772 0.023742903)
(0.033803877 0.99565135 0.048538001)
(0.027040931 0.85600906 0.066155693)
(0.0062337129 0.77136311 0.073692943)
(-0.020302788 0.75375385 0.071064151)
(-0.042375327 0.80569503 0.060018265)
(-0.050960123 0.92000503 0.043348597)
(-0.041049777 1.0792972 0.024234377)
(-0.015342587 1.2410477 0.0073617595)
(-0.0006966592 1.2849927 -0.00011117909)
(0.0022113498 1.273132 0.0013413456)
(0.020646068 1.1411105 0.022188857)
(0.027867661 0.98667997 0.042132774)
(0.02109707 0.86315072 0.055422233)
(0.0036312517 0.78949858 0.060431629)
(-0.017941172 0.77428939 0.057619783)
(-0.035994275 0.81926862 0.048568591)
(-0.043632708 0.91942796 0.035392862)
(-0.036421144 1.0620936 0.020314548)
(-0.014962898 1.2165193 0.0065377494)
(-0.00056166218 1.2750093 -7.3083659e-05)
(0.0020926566 1.2624837 0.0014200288)
(0.018365048 1.1216943 0.020866656)
(0.023220427 0.9800538 0.037031432)
(0.016579028 0.87006653 0.047068371)
(0.0017427636 0.80533236 0.050282025)
(-0.016047773 0.79203123 0.047394114)
(-0.031016715 0.83143116 0.039820334)
(-0.037847509 0.91991854 0.029221147)
(-0.032700315 1.0484316 0.017208912)
(-0.014953233 1.1946866 0.0059966801)
(-0.00050913683 1.2659604 -5.0312931e-05)
(0.0022030647 1.2511847 0.0017597947)
(0.016971763 1.104438 0.020178693)
(0.019782768 0.97498523 0.033189486)
(0.013170268 0.87669219 0.040622866)
(0.00034024389 0.81917613 0.042438124)
(-0.014544411 0.80738528 0.039505824)
(-0.027144107 0.84233528 0.033103275)
(-0.033403939 0.92112963 0.024559859)
(-0.030056215 1.0367595 0.015024525)
(-0.015286487 1.1747778 0.0057188091)
(-0.00062465181 1.256655 -9.5837641e-05)
(-8.9155319e-05 1.0000112 -5.0238239e-05)
(-0.00026885823 1.0000205 -0.00013535181)
(-0.00034267899 1.0000225 -0.00022728579)
(-0.00030954955 1.0000175 -0.00031256118)
(-0.0001712455 1.000009 -0.00037172141)
(2.893247e-05 0.99999947 -0.00038895199)
(0.00021865109 0.99999307 -0.00035916166)
(0.00033074622 0.99999155 -0.0002909064)
(0.00033240578 0.99999462 -0.00020191266)
(0.0002327026 0.9999994 -0.00011051272)
(-8.285701e-05 0.99999865 -5.4213771e-05)
(-0.001682779 1.0009738 -0.00069471899)
(-0.0033649423 1.0004596 -0.0016352662)
(-0.0041362412 0.99968135 -0.0026820607)
(-0.0036003533 0.99882813 -0.0036349659)
(-0.0018184151 0.99819396 -0.0042696802)
(0.00063232831 0.99804959 -0.0044062239)
(0.0028484058 0.99846315 -0.0040028665)
(0.0040445673 0.99924667 -0.003179508)
(0.0039031106 1.0000951 -0.0021524485)
(0.0025920642 1.0007564 -0.001130298)
(0.00072418138 1.0009767 -0.00037710907)
(-0.0035924712 1.0033465 -0.001470566)
(-0.0070626895 1.0016262 -0.0034322177)
(-0.0087850167 0.99886725 -0.0056914482)
(-0.0077425729 0.99576744 -0.0078076833)
(-0.0039439081 0.99343128 -0.0092444096)
(0.001370239 0.99289813 -0.0095560717)
(0.006151381 0.9944291 -0.0086382203)
(0.0086446702 0.99729873 -0.0067912525)
(0.0082359205 1.0003467 -0.0045394079)
(0.005425239 1.0026485 -0.002356833)
(0.0017679172 1.0033366 -0.00077370688)
(-0.0064341304 1.0078798 -0.0026235216)
(-0.01272676 1.0039708 -0.0061800149)
(-0.016089775 0.99751703 -0.010415554)
(-0.014461379 0.99001085 -0.014565398)
(-0.0074711067 0.9841911 -0.017481456)
(0.0025994493 0.98284618 -0.018124136)
(0.011578198 0.98669546 -0.016242263)
(0.015989407 0.99375316 -0.012552569)
(0.014941723 1.0010063 -0.0082302991)
(0.0097240011 1.0063073 -0.0042098039)
(0.0032365699 1.0079343 -0.0013750522)
(-0.010836273 1.0157552 -0.0044088956)
(-0.02175777 1.0083747 -0.0105551)
(-0.028217466 0.99571867 -0.018251427)
(-0.026108584 0.98027231 -0.026266214)
(-0.013786461 0.9677313 -0.032206194)
(0.004815085 0.96476717 -0.033549821)
(0.021159791 0.97319129 -0.029650368)
(0.028449681 0.98807651 -0.022318139)
(0.025839265 1.0026301 -0.014224197)
(0.016468624 1.0128102 -0.0071168129)
(0.0054767472 1.0158998 -0.002316738)
(-0.017541542 1.0289036 -0.0071327772)
(-0.036049337 1.0165753 -0.017476475)
(-0.048578149 0.99417778 -0.031405168)
(-0.046969072 0.96477398 -0.047211785)
(-0.025648531 0.93920915 -0.059847073)
(0.0090214063 0.93295549 -0.062817236)
(0.03879641 0.95052365 -0.054311854)
(0.050064132 0.97991648 -0.039250383)
(0.043563498 1.0066009 -0.023973743)
(0.026899678 1.024048 -0.011616697)
(0.0088573426 1.0290697 -0.0037564561)
(-0.027183505 1.0501048 -0.011068898)
(-0.057745325 1.0318166 -0.027981964)
(-0.082263299 0.99556278 -0.05316166)
(-0.084933404 0.94255972 -0.085335121)
(-0.048693701 0.89134034 -0.11359322)
(0.017297573 0.87835406 -0.12051104)
(0.07217775 0.91452702 -0.10098157)
(0.087588203 0.97058963 -0.068636883)
(0.071564137 1.0161506 -0.039374313)
(0.042227036 1.0430509 -0.018233373)
(0.013684017 1.0500403 -0.0058309084)
(-0.039637085 1.0828232 -0.016193984)
(-0.088069812 1.0597526 -0.04264499)
(-0.13564653 1.0073615 -0.087524185)
(-0.15629608 0.9199858 -0.15710722)
(-0.1029437 0.82116053 -0.23807161)
(0.037229079 0.79034027 -0.25859668)
(0.14399188 0.86963597 -0.20050271)
(0.15121099 0.96669874 -0.11832984)
(0.1130744 1.0382509 -0.062157485)
(0.062663981 1.0741999 -0.027050794)
(0.019893118 1.0818506 -0.0085334252)
(-0.052772287 1.1300171 -0.021648909)
(-0.12393515 1.1086787 -0.059765985)
(-0.21747962 1.0559674 -0.14133115)
(-0.28010874 0.90234953 -0.27838676)
(-0.16863451 0.66213237 -0.38052513)
(0.052388472 0.59423663 -0.40725571)
(0.23846208 0.77640151 -0.34024435)
(0.26715234 1.0020206 -0.21071802)
(0.1664751 1.0866864 -0.091191105)
(0.085265125 1.1225252 -0.036749718)
(0.026451487 1.126853 -0.011432008)
(-0.061062146 1.1910335 -0.025141255)
(-0.15186985 1.1898634 -0.07363647)
(-0.29048335 1.1421801 -0.18455804)
(-0.31244154 0.82417278 -0.29699959)
(-0.19804569 0.44578856 -0.4154808)
(0.043313581 0.33981708 -0.46062688)
(0.24882723 0.62150167 -0.3763642)
(0.31024472 1.0111019 -0.25052754)
(0.22242179 1.1903052 -0.12374248)
(0.10032828 1.1899285 -0.04304013)
(0.030767503 1.1841057 -0.013381297)
(-0.056646144 1.2568923 -0.023572976)
(-0.1517739 1.2966232 -0.073820289)
(-0.22543375 1.1576076 -0.13155205)
(-0.21995034 0.74906923 -0.18307744)
(-0.1710789 0.30216307 -0.28621965)
(-0.00053608209 0.16524324 -0.35371146)
(0.14995057 0.51461627 -0.2679483)
(0.20523204 0.97143116 -0.17979753)
(0.20173834 1.2764702 -0.11443382)
(0.094575606 1.2702441 -0.040868634)
(0.0292811 1.2460078 -0.012789011)
(-0.038396348 1.3115863 -0.016626649)
(-0.096686516 1.3502598 -0.044281208)
(-0.071619009 1.0953836 -0.02478128)