/*--------------------------------*- C++ -*----------------------------------*\
| =========                 |                                                 |
| \\      /  F ield         | OpenFOAM: The Open Source CFD Toolbox           |
|  \\    /   O peration     | Version:  2406                                  |
|   \\  /    A nd           | Website:  www.openfoam.com                      |
|    \\/     M anipulation  |                                                 |
\*---------------------------------------------------------------------------*/
FoamFile
{
    version     2.0;
    format      ascii;
    arch        "LSB;label=32;scalar=64";
    class       volScalarField;
    location    "150";
    object      epsilon;
}
// * * * * * * * * * * * * * * * * * * * * * * * * * * * * * * * * * * * * * //

dimensions      [0 2 -3 0 0 0 0];

internalField   nonuniform List<scalar> 
12225
(
1085.71
2467.78
3645.43
4414.76
4812.17
4980.59
4975.43
4926.68
4840.97
4729.45
4621.16
4517.77
4426.19
4340.44
4269.97
4199.91
4152.2
4087.88
81.2297
262.517
438.548
584.487
691.145
762.774
805.004
829.519
846.919
856.603
866.713
873.327
882.967
890.493
900.252
909.803
916.81
933.301
20.5781
51.1716
83.4787
112.52
136.942
156.16
170.183
179.836
186.403
190.719
193.502
195.547
196.845
198.293
199.292
200.642
202.446
205.9
14.758
21.8684
30.0237
38.494
46.2239
53.0267
58.6301
63.2489
66.7595
69.6312
71.6097
73.3163
74.3077
75.3145
75.7392
76.2736
76.6284
77.4035
14.361
16.3339
18.4582
21.4843
24.4413
27.2584
29.7383
31.9794
33.8188
35.4753
36.7426
37.9225
38.7389
39.5682
40.0475
40.6379
40.8323
41.4545
14.6446
14.9542
15.428
16.4553
17.61
18.8278
19.9702
21.0758
22.0333
22.9469
23.6884
24.4136
24.9539
25.5241
25.8879
26.3478
26.5395
26.9944
14.7183
14.6387
14.6738
14.8757
15.2178
15.683
16.1629
16.6721
17.1381
17.6103
18.0098
18.4198
18.7374
19.0863
19.3191
19.6221
19.7594
20.0809
14.7545
14.5907
14.4692
14.4209
14.4418
14.5152
14.6476
14.8245
15.0022
15.2021
15.379
15.5756
15.7321
15.9142
16.0389
16.2075
16.2877
16.474
14.7641
14.5919
14.4345
14.3029
14.2031
14.1371
14.0973
14.0987
14.1107
14.1415
14.1782
14.2345
14.2792
14.3424
14.3848
14.4497
14.4804
14.5614
14.7656
14.5942
14.4321
14.2828
14.1466
14.0296
13.9256
13.8437
13.7745
13.7225
13.6772
13.6482
13.6204
13.6063
13.5891
13.5838
13.5721
13.5816
14.7657
14.5945
14.4323
14.2806
14.137
14.0051
13.8816
13.7706
13.668
13.5778
13.4939
13.422
13.3538
13.2972
13.2407
13.1974
13.1474
13.1179
14.7657
14.5944
14.4323
14.2801
14.1357
14.0007
13.8728
13.754
13.6418
13.5386
13.441
13.3524
13.2678
13.1923
13.1186
13.0551
12.9897
12.937
14.7657
14.5941
14.4321
14.2797
14.1353
13.9995
13.8707
13.7497
13.6348
13.5272
13.4248
13.3295
13.2385
13.1543
13.0733
12.9992
12.9269
12.8618
14.7657
14.594
14.4319
14.2792
14.1349
13.9987
13.8698
13.7481
13.6327
13.5237
13.4201
13.3225
13.2295
13.1419
13.0583
12.9797
12.9044
12.8339
14.7657
14.5938
14.4317
14.2789
14.1345
13.9981
13.8691
13.7471
13.6316
13.5222
13.4184
13.32
13.2266
13.138
13.0537
12.9738
12.8976
12.8254
14.7657
14.5938
14.4316
14.2786
14.1341
13.9976
13.8685
13.7463
13.6307
13.5211
13.4171
13.3186
13.225
13.1361
13.0516
12.9713
12.8949
12.8223
14.7657
14.5937
14.4315
14.2784
14.1338
13.9972
13.868
13.7457
13.6299
13.5202
13.4162
13.3175
13.2237
13.1347
13.0501
12.9697
12.8931
12.8204
14.7657
14.5937
14.4314
14.2783
14.1336
13.9969
13.8677
13.7453
13.6294
13.5196
13.4155
13.3167
13.2228
13.1337
13.049
12.9685
12.8919
12.819
14.7657
14.5937
14.4314
14.2782
14.1336
13.9969
13.8675
13.7452
13.6292
13.5194
13.4152
13.3163
13.2224
13.1333
13.0485
12.9679
12.8913
12.8183
14.7657
14.5937
14.4315
14.2783
14.1337
13.997
13.8677
13.7453
13.6294
13.5196
13.4154
13.3165
13.2227
13.1335
13.0488
12.9683
12.8917
12.8187
14.7657
14.5937
14.4316
14.2785
14.1339
13.9972
13.8681
13.7457
13.63
13.5202
13.4162
13.3176
13.224
13.1352
13.0509
12.9707
12.8947
12.8223
14.7657
14.5938
14.4317
14.2786
14.1343
13.9977
13.869
13.7472
13.6325
13.524
13.4219
13.3252
13.2344
13.1482
13.0676
12.9907
12.9191
12.8503
14.7657
14.5937
14.4319
14.2789
14.1361
14.002
13.8782
13.7628
13.6573
13.5595
13.4706
13.3883
13.314
13.2446
13.1828
13.1237
13.0728
13.0213
14.7644
14.5922
14.4335
14.2871
14.1628
14.0551
13.9689
13.8978
13.8459
13.8048
13.7783
13.7581
13.7483
13.7416
13.7417
13.7459
13.7519
13.7516
14.7478
14.5944
14.4764
14.4102
14.4234
14.4613
14.5554
14.6707
14.817
14.9614
15.1239
15.2714
15.4323
15.5688
15.7202
15.8381
15.979
16.0731
14.6504
14.7821
14.9369
15.3416
15.9228
16.5509
17.234
17.8783
18.5382
19.1223
19.7135
20.2106
20.7213
21.1264
21.5607
21.8779
22.248
22.4838
14.572
16.1273
17.9727
20.4197
22.9239
25.2658
27.5475
29.5536
31.4922
33.1046
34.6883
35.9173
37.1799
38.0708
39.0669
39.6796
40.4691
40.8617
16.5443
25.8795
36.7213
46.5549
55.8671
64.2751
72.1048
78.7456
84.8084
89.5986
94.0235
97.1875
100.328
102.208
104.473
105.439
107.16
107.521
45.7969
105.21
164.443
217.237
267.853
313.461
353.68
386.128
413.253
433.69
450.639
462.752
472.951
479.839
486.893
490.391
496.251
497.597
632.346
1081.15
1534.75
1880.98
2183.47
2431.74
2631.5
2772.95
2876.05
2932.04
2968.89
2969.89
2962.85
2945.85
2917.86
2884.53
2848.64
2811.24
0.959606
0.986451
1.65315
2.28396
2.82194
3.28983
3.7407
4.16938
4.59688
5.0548
5.58418
6.23355
7.01503
7.90995
8.90411
9.99584
11.1876
12.4861
13.896
15.4243
17.0754
18.8574
20.777
22.8493
25.0514
27.3847
29.8491
32.4525
35.2026
38.122
41.239
44.482
47.8678
51.3956
55.0644
58.8809
62.8438
66.9644
71.2458
75.699
80.3253
85.139
90.1416
95.348
100.757
106.38
112.203
118.244
124.499
130.985
137.698
144.656
151.853
159.309
167.016
174.994
183.236
191.759
200.556
209.647
219.019
228.695
238.659
248.936
259.508
270.398
281.587
293.101
304.915
317.059
329.505
342.283
355.364
368.778
382.492
396.537
410.877
425.546
440.505
455.79
471.357
487.24
503.395
519.856
536.568
553.565
570.791
588.273
605.958
623.855
641.923
660.117
678.402
696.724
715.046
733.323
751.554
769.781
788.177
806.542
824.818
842.964
860.932
878.66
896.084
913.142
929.753
945.85
961.338
976.141
990.152
1003.29
1015.44
1026.52
1036.44
1045.11
1052.43
1058.15
1061.23
1063.52
1063.11
1061.35
1058.2
1052.5
1044.94
1035.41
1023.99
1010.26
994.7
977.485
958.796
938.775
917.64
895.546
872.717
849.31
825.548
801.59
777.681
754.115
731.63
713.656
698.338
683.351
668.444
653.641
638.995
624.561
610.385
596.505
582.954
569.76
556.944
544.525
532.512
520.912
509.729
498.966
488.622
478.697
469.186
460.084
451.374
443.055
435.125
427.592
420.45
413.685
407.286
401.235
395.521
390.128
385.031
380.194
375.562
371.037
366.44
361.265
355.167
331.653
3.90322
2.17358
1.96069
2.05721
2.27375
2.55975
2.90017
3.28572
3.71525
4.1929
4.72542
5.3191
5.97499
6.68979
7.4602
8.28474
9.16319
10.0961
11.0842
12.128
13.2278
14.3839
15.5957
16.8633
18.1855
19.5628
20.9936
22.4799
24.0238
25.6278
27.2919
29.0116
30.7899
32.6294
34.5331
36.5058
38.5533
40.6792
42.8778
45.1529
47.5072
49.944
52.4653
55.0743
57.7723
60.5608
63.4392
66.4113
69.4786
72.6442
75.9095
79.2776
82.7495
86.3283
90.0149
93.8121
97.7202
101.742
105.878
110.131
114.499
118.987
123.592
128.318
133.162
138.128
143.213
148.419
153.745
159.191
164.756
170.44
176.241
182.159
188.19
194.335
200.588
206.952
213.42
219.992
226.661
233.429
240.285
247.228
254.249
261.344
268.503
275.72
282.983
290.286
297.612
304.949
312.281
319.597
326.891
334.161
341.423
348.712
356.092
363.649
371.134
378.562
385.912
393.163
400.295
407.283
414.104
420.731
427.134
433.282
439.142
444.68
449.857
454.638
458.981
462.847
466.181
468.905
470.846
472.272
472.648
472.635
471.866
470.155
467.641
464.307
460.16
455.165
449.408
442.947
435.839
428.146
419.936
411.278
402.248
392.916
383.36
373.65
363.863
354.102
344.569
335.831
327.726
319.865
312.138
304.537
297.075
289.773
282.644
275.704
268.962
262.426
256.101
249.993
244.101
238.426
232.967
227.721
222.686
217.859
213.234
208.809
204.558
200.494
196.621
192.937
189.437
186.116
182.967
179.983
177.159
174.488
171.966
169.583
167.331
165.204
163.186
161.272
160.206
157.839
7.40107
3.54143
2.92516
2.85302
2.97206
3.19929
3.50814
3.8871
4.3304
4.83462
5.39703
6.01479
6.68427
7.40151
8.16313
8.96695
9.81191
10.6978
11.6252
12.5948
13.6086
14.6664
15.7642
16.8982
18.0616
19.2632
20.5068
21.7943
23.127
24.5061
25.9324
27.4067
28.9309
30.5064
32.1353
33.8197
35.5614
37.3619
39.2218
41.1433
43.1315
45.1862
47.3085
49.5001
51.7624
54.0968
56.5044
58.9872
61.5468
64.1849
66.9031
69.703
72.586
75.5537
78.6071
81.7476
84.9761
88.2939
91.7015
95.2
98.7897
102.472
106.245
110.112
114.071
118.122
122.265
126.5
130.826
135.242
139.747
144.34
149.019
153.782
158.628
163.554
168.557
173.636
178.787
184.007
189.292
194.639
200.044
205.502
211.007
216.557
222.143
227.762
233.408
239.076
244.759
250.453
256.151
261.852
267.556
273.266
278.99
284.737
290.52
296.318
302.079
307.794
313.452
319.039
324.54
329.94
335.223
340.366
345.352
350.154
354.748
359.104
363.194
366.984
370.44
373.523
376.192
378.403
380.046
381.216
381.675
381.765
381.209
379.976
378.094
375.563
372.386
368.572
364.157
359.182
353.689
347.726
341.346
334.604
327.557
320.263
312.777
305.157
297.46
289.766
282.193
274.929
267.964
261.19
254.557
248.059
241.704
235.505
229.473
223.616
217.942
212.455
207.156
202.048
197.13
192.4
187.855
183.492
179.307
175.297
171.456
167.781
164.26
160.892
157.676
154.609
151.686
148.904
146.256
143.739
141.347
139.077
136.925
134.89
132.97
131.17
129.498
127.988
126.949
125.785
10.7485
4.93768
3.9675
3.76934
3.82768
4.02816
4.32771
4.70833
5.16064
5.67829
6.25572
6.88756
7.56855
8.294
9.06009
9.86415
10.7046
11.5806
12.4917
13.4378
14.4178
15.4319
16.4824
17.5712
18.7023
19.875
21.0888
22.3445
23.6433
24.9861
26.3744
27.8098
29.2945
30.8285
32.413
34.0494
35.7391
37.4831
39.2819
41.1355
43.0485
45.0229
47.0604
49.1628
51.3312
53.5674
55.8728
58.2489
60.6974
63.2199
65.8178
68.4928
71.2461
74.0792
76.9933
79.9894
83.0685
86.2316
89.4794
92.8126
96.2319
99.7376
103.33
107.009
110.775
114.628
118.566
122.59
126.698
130.89
135.164
139.518
143.951
148.46
153.044
157.699
162.423
167.213
172.065
176.977
181.944
186.961
192.027
197.134
202.28
207.46
212.669
217.903
223.157
228.429
233.715
239.01
244.313
249.621
254.935
260.256
265.584
270.923
276.264
281.592
286.886
292.139
297.339
302.476
307.539
312.514
317.387
322.142
326.759
331.217
335.494
339.562
343.394
346.958
350.219
353.142
355.686
357.811
359.471
360.64
361.191
361.352
360.905
359.844
358.169
355.879
352.979
349.483
345.417
340.816
335.717
330.168
324.216
317.915
311.318
304.48
297.454
290.297
283.071
275.843
268.695
261.718
254.93
248.302
241.816
235.473
229.283
223.255
217.398
211.722
206.23
200.926
195.811
190.885
186.146
181.592
177.22
173.025
169.002
165.148
161.456
157.922
154.539
151.301
148.206
145.249
142.425
139.73
137.159
134.707
132.371
130.147
128.031
126.025
124.129
122.35
120.705
119.235
118.093
117.065
13.7433
6.27929
4.9937
4.68492
4.68732
4.85937
5.1442
5.51733
5.96597
6.48184
7.05836
7.68964
8.37029
9.09561
9.8618
10.6661
11.5065
12.3823
13.2928
14.2381
15.2184
16.2346
17.288
18.38
19.5119
20.6844
21.8982
23.154
24.4528
25.7956
27.1833
28.6168
30.0971
31.6261
33.2056
34.8369
36.5215
38.2609
40.0568
41.9115
43.8272
45.8047
47.8452
49.9503
52.1215
54.3604
56.6686
59.0479
61.4998
64.0261
66.6283
69.3081
72.0671
74.907
77.8296
80.8353
83.9253
87.1007
90.3623
93.7111
97.1477
100.673
104.286
107.989
111.78
115.66
119.628
123.683
127.825
132.052
136.363
140.757
145.23
149.78
154.406
159.104
163.872
168.704
173.599
178.552
183.559
188.615
193.716
198.858
204.036
209.245
214.481
219.739
225.016
230.308
235.611
240.922
246.238
251.557
256.875
262.192
267.504
272.808
278.096
283.357
288.582
293.761
298.888
303.952
308.944
313.853
318.665
323.366
327.94
332.366
336.622
340.685
344.525
348.114
351.416
354.397
357.017
359.236
361.016
362.324
363.022
363.3
362.989
362.069
360.533
358.376
355.604
352.226
348.267
343.757
338.735
333.246
327.339
321.066
314.483
307.647
300.618
293.453
286.213
278.961
271.76
264.672
257.723
250.916
244.253
237.74
231.388
225.209
219.211
213.401
207.785
202.364
197.14
192.111
187.275
182.629
178.168
173.889
169.785
165.851
162.082
158.471
155.013
151.701
148.53
145.496
142.593
139.815
137.16
134.621
132.196
129.88
127.672
125.573
123.584
121.717
119.988
118.44
117.156
115.988
16.7842
7.59785
5.98194
5.55241
5.49897
5.63738
5.90193
6.26114
6.69882
7.20501
7.77253
8.39545
9.06867
9.78785
10.5494
11.3507
12.1899
13.0659
13.9782
14.9268
15.9121
16.9348
17.9959
19.0963
20.2371
21.4192
22.6434
23.9107
25.222
26.5785
27.9813
29.4316
30.9305
32.4798
34.0809
35.7353
37.4446
39.2105
41.0347
42.919
44.865
46.8745
48.9488
51.0897
53.2988
55.5781
57.9292
60.354
62.8544
65.4322
68.0892
70.8273
73.6481
76.5532
79.5441
82.6226
85.7902
89.0484
92.3984
95.8413
99.3779
103.009
106.736
110.558
114.475
118.488
122.596
126.799
131.095
135.484
139.963
144.531
149.186
153.925
158.746
163.644
168.617
173.661
178.771
183.944
189.174
194.457
199.788
205.161
210.572
216.015
221.486
226.979
232.49
238.015
243.549
249.088
254.628
260.164
265.693
271.209
276.708
282.183
287.628
293.038
298.404
303.719
308.978
314.17
319.289
324.324
329.263
334.093
338.799
343.362
347.762
351.976
355.976
359.733
363.212
366.378
369.191
371.61
373.597
375.114
376.033
376.46
376.324
375.556
374.148
372.094
369.394
366.058
362.106
357.567
352.48
346.891
340.85
334.415
327.645
320.602
313.349
305.946
298.455
290.936
283.448
276.041
268.747
261.585
254.567
247.707
241.017
234.51
228.195
222.08
216.17
210.467
204.97
199.68
194.592
189.703
185.009
180.503
176.18
172.034
168.059
164.247
160.592
157.089
153.73
150.51
147.423
144.464
141.628
138.91
136.307
133.815
131.433
129.162
127.006
124.976
123.09
121.386
119.909
118.505
20.8672
9.04945
6.95607
6.36269
6.23798
6.33496
6.57386
6.91484
7.33767
7.83052
8.38545
8.99649
9.65881
10.3684
11.1222
11.9176
12.7529
13.627
14.5393
15.4899
16.4789
17.5069
18.5748
19.6833
20.8334
22.0261
23.2624
24.5433
25.87
27.2436
28.6655
30.1369
31.6593
33.2341
34.8631
36.5477
38.2897
40.0908
41.9527
43.8772
45.8662
47.9214
50.0448
52.2381
54.5033
56.8425
59.2576
61.7509
64.3245
66.9803
69.7207
72.5478
75.4635
78.47
81.5692
84.7632
88.0538
91.4428
94.9318
98.5223
102.216
106.013
109.914
113.921
118.034
122.252
126.576
131.005
135.538
140.174
144.912
149.748
154.682
159.71
164.829
170.035
175.325
180.695
186.138
191.652
197.229
202.865
208.554
214.29
220.067
225.879
231.719
237.582
243.462
249.353
255.25
261.148
267.039
272.919
278.782
284.622
290.434
296.21
301.946
307.635
313.27
318.847
324.357
329.794
335.151
340.418
345.586
350.641
355.571
360.358
364.984
369.426
373.659
377.652
381.372
384.783
387.844
390.513
392.747
394.501
395.685
396.305
396.353
395.746
394.467
392.505
389.856
386.528
382.536
377.911
372.691
366.923
360.663
353.972
346.914
339.555
331.96
324.194
316.321
308.402
300.494
292.647
284.897
277.271
269.791
262.474
255.336
248.392
241.651
235.123
228.812
222.72
216.848
211.194
205.755
200.526
195.502
190.677
186.044
181.597
177.329
173.232
169.299
165.523
161.898
158.416
155.072
151.86
148.775
145.811
142.965
140.233
137.616
135.114
132.732
130.482
128.38
126.46
124.742
123.057
24.9085
10.4372
7.85265
7.08616
6.88427
6.93594
7.14629
7.4668
7.87306
8.35114
8.89221
9.49006
10.14
10.8383
11.5822
12.3693
13.1981
14.0675
14.977
15.9265
16.9162
17.9466
19.0183
20.1323
21.2893
22.4906
23.7372
25.0302
26.371
27.7609
29.2014
30.6938
32.2398
33.8411
35.4992
37.216
38.9933
40.8329
42.7367
44.7068
46.7451
48.8537
51.0346
53.2901
55.6224
58.0339
60.5269
63.1038
65.7672
68.5195
71.3633
74.3011
77.3355
80.469
83.704
87.0431
90.4884
94.0422
97.7066
101.483
105.374
109.381
113.505
117.746
122.106
126.584
131.181
135.897
140.731
145.681
150.745
155.923
161.211
166.606
172.105
177.704
183.398
189.183
195.053
201.002
207.024
213.114
219.263
225.464
231.712
237.997
244.313
250.653
257.008
263.372
269.738
276.097
282.443
288.769
295.068
301.331
307.554
313.728
319.848
325.907
331.899
337.818
343.657
349.411
355.071
360.631
366.08
371.409
376.605
381.654
386.537
391.234
395.72
399.968
403.945
407.613
410.933
413.859
416.344
418.34
419.78
420.611
420.841
420.391
419.233
417.351
414.737
411.394
407.337
402.594
397.206
391.222
384.7
377.705
370.304
362.566
354.563
346.362
338.031
329.633
321.227
312.864
304.586
296.427
288.413
280.567
272.909
265.454
258.214
251.199
244.414
237.861
231.542
225.453
219.592
213.953
208.531
203.319
198.31
193.496
188.871
184.425
180.151
176.042
172.089
168.287
164.628
161.106
157.715
154.451
151.309
148.286
145.382
142.599
139.942
137.422
135.054
132.867
130.863
128.863
28.6179
11.6849
8.63872
7.70592
7.42748
7.43377
7.61481
7.9141
8.30321
8.76617
9.2931
9.87744
10.5144
11.2006
11.9332
12.7103
13.5304
14.3926
15.2964
16.2417
17.2288
18.2581
19.3304
20.4464
21.6072
22.8139
24.0679
25.3703
26.7227
28.1267
29.5838
31.0957
32.6642
34.2911
35.9784
37.7279
39.5416
41.4217
43.3704
45.3898
47.4821
49.6499
51.8955
54.2214
56.6302
59.1246
61.7075
64.3816
67.1498
70.0152
72.9807
76.0494
79.2243
82.5085
85.905
89.4167
93.0463
96.7968
100.671
104.67
108.797
113.055
117.443
121.964
126.62
131.409
136.333
141.391
146.584
151.909
157.364
162.949
168.66
174.493
180.445
186.512
192.688
198.968
205.346
211.815
218.367
224.996
231.693
238.45
245.257
252.107
258.989
265.895
272.815
279.741
286.663
293.572
300.459
307.314
314.13
320.897
327.607
334.253
340.827
347.322
353.731
360.047
366.264
372.375
378.374
384.254
390.006
395.622
401.09
406.398
411.531
416.469
421.191
425.67
429.875
433.771
437.317
440.468
443.174
445.382
447.034
448.059
448.446
448.127
447.062
445.233
442.631
439.253
435.113
430.237
424.664
418.445
411.641
404.317
396.545
388.398
379.951
371.276
362.445
353.523
344.574
335.652
326.803
318.067
309.475
301.055
292.829
284.815
277.027
269.475
262.166
255.102
248.285
241.711
235.377
229.278
223.408
217.759
212.323
207.093
202.06
197.216
192.552
188.061
183.733
179.563
175.541
171.662
167.919
164.308
160.825
157.466
154.232
151.123
148.147
145.313
142.635
140.135
137.806
135.462
31.8736
12.7626
9.30275
8.21815
7.8653
7.83025
7.98187
8.25985
8.63175
9.07959
9.59247
10.1633
10.7873
11.4608
12.1814
12.9473
13.7571
14.6101
15.5059
16.4445
17.4262
18.4516
19.5214
20.6365
21.7982
23.0076
24.2662
25.5755
26.9372
28.3532
29.8253
31.3555
32.9458
34.5983
36.3151
38.0985
39.9509
41.8745
43.8718
45.9455
48.098
50.3323
52.651
55.0571
57.5537
60.1439
62.8309
65.618
68.5087
71.5065
74.6149
77.8375
81.178
84.6399
88.2268
91.9422
95.7896
99.7722
103.893
108.155
112.561
117.113
121.814
126.664
131.666
136.82
142.126
147.586
153.197
158.959
164.87
170.928
177.129
183.471
189.948
196.556
203.289
210.14
217.103
224.169
231.331
238.579
245.904
253.295
260.743
268.236
275.764
283.315
290.878
298.442
305.995
313.527
321.024
328.478
335.876
343.209
350.467
357.64
364.718
371.693
378.557
385.302
391.921
398.407
404.754
410.954
417.001
422.886
428.601
434.134
439.473
444.602
449.501
454.148
458.514
462.566
466.266
469.567
472.421
474.772
476.56
477.723
478.21
477.969
476.944
475.128
472.505
469.069
464.827
459.803
454.035
447.573
440.478
432.818
424.667
416.101
407.199
398.036
388.689
379.227
369.716
360.215
350.776
341.442
332.251
323.232
314.413
305.813
297.448
289.33
281.466
273.859
266.51
259.418
252.577
245.982
239.628
233.505
227.606
221.922
216.445
211.165
206.073
201.161
196.419
191.841
187.418
183.143
179.011
175.014
171.151
167.418
163.814
160.342
157.008
153.821
150.792
147.942
145.251
142.539
34.6053
13.6568
9.84166
8.62365
8.20253
8.12913
8.25349
8.51093
8.86597
9.29893
9.79797
10.3555
10.9665
11.6275
12.3359
13.0901
13.889
14.7317
15.6182
16.5485
17.5232
18.5429
19.6086
20.7213
21.8824
23.0931
24.3549
25.6698
27.0399
28.4674
29.9546
31.5037
33.1171
34.7973
36.5467
38.3681
40.264
42.2372
44.2906
46.4271
48.6499
50.9622
53.3671
55.8682
58.469
61.1732
63.9845
66.9068
69.9441
73.1006
76.3803
79.7875
83.3264
87.0013
90.8162
94.7753
98.8826
103.142
107.557
112.131
116.867
121.768
126.836
132.074
137.483
143.063
148.817
154.742
160.84
167.108
173.545
180.147
186.912
193.835
200.912
208.135
215.5
222.998
230.621
238.36
246.205
254.147
262.173
270.272
278.431
286.638
294.88
303.143
311.413
319.677
327.921
336.131
344.294
352.396
360.424
368.367
376.21
383.943
391.554
399.031
406.366
413.547
420.569
427.421
434.097
440.591
446.894
453.001
458.905
464.595
470.063
475.295
480.277
484.988
489.405
493.499
497.235
500.57
503.457
505.841
507.661
508.856
509.353
509.108
508.046
506.182
503.491
499.96
495.59
490.401
484.429
477.721
470.337
462.347
453.824
444.848
435.499
425.858
416.002
406.006
395.939
385.864
375.838
365.907
356.115
346.495
337.076
327.882
318.93
310.234
301.801
293.636
285.739
278.109
270.742
263.631
256.77
250.15
243.764
237.601
231.652
225.908
220.36
214.999
209.814
204.798
199.943
195.242
190.688
186.275
182
177.86
173.855
169.987
166.261
162.687
159.275
156.04
152.958
149.855
36.7726
14.362
10.2577
8.92807
8.44775
8.33972
8.43907
8.67713
9.01599
9.43459
9.92031
10.4652
11.0638
11.7128
12.4096
13.153
13.9418
14.7748
15.6521
16.5742
17.542
18.5564
19.6185
20.7296
21.8912
23.1048
24.3714
25.6925
27.0724
28.514
30.0196
31.592
33.2338
34.9481
36.7378
38.6061
40.5561
42.5911
44.7143
46.9293
49.2397
51.6493
54.1619
56.7816
59.5125
62.359
65.3253
68.4161
71.6361
74.9898
78.4822
82.1181
85.9023
89.8397
93.935
98.1929
102.618
107.214
111.986
116.938
122.072
127.391
132.9
138.598
144.489
150.573
156.851
163.322
169.986
176.841
183.883
191.111
198.52
206.105
213.859
221.777
229.85
238.07
246.427
254.91
263.509
272.212
281.004
289.872
298.803
307.78
316.788
325.812
334.835
343.842
352.815
361.739
370.598
379.375
388.055
396.623
405.063
413.361
421.504
429.476
437.266
444.863
452.255
459.433
466.389
473.116
479.606
485.853
491.852
497.596
503.078
508.289
513.218
517.85
522.168
526.148
529.76
532.969
535.731
537.995
539.703
540.802
541.181
540.809
539.606
537.611
534.782
531.102
526.568
521.191
515.004
508.05
500.388
492.084
483.213
473.854
464.089
453.999
443.665
433.164
422.57
411.948
401.359
390.855
380.481
370.277
360.273
350.496
340.966
331.698
322.7
313.977
305.532
297.362
289.463
281.828
274.452
267.325
260.438
253.781
247.346
241.122
235.1
229.269
223.621
218.146
212.837
207.686
202.686
197.832
193.121
188.549
184.116
179.825
175.682
171.693
167.869
164.222
160.724
157.213
38.3646
14.8805
10.5563
9.13891
8.61009
8.47229
8.54967
8.77022
9.09422
9.49963
9.97334
10.5072
11.0949
11.7332
12.4199
13.1539
13.9349
14.7604
15.6314
16.5486
17.5128
18.5253
19.5874
20.7008
21.8674
23.0898
24.3674
25.7016
27.0995
28.5636
30.0971
31.7033
33.3856
35.1476
36.9933
38.9264
40.9506
43.0696
45.2873
47.6079
50.0358
52.5753
55.2312
58.0082
60.911
63.9449
67.1148
70.426
73.884
77.494
81.2615
85.192
89.291
93.5639
98.0158
102.652
107.477
112.496
117.713
123.132
128.756
134.589
140.633
146.89
153.361
160.047
166.948
174.063
181.39
188.927
196.67
204.616
212.759
221.092
229.61
238.303
247.162
256.177
265.337
274.63
284.043
293.561
303.169
312.852
322.593
332.375
342.179
351.987
361.782
371.542
381.252
390.89
400.439
409.881
419.196
428.367
437.376
446.206
454.838
463.258
471.448
479.395
487.086
494.509
501.654
508.513
515.079
521.345
527.307
532.961
538.301
543.324
548.024
552.393
556.419
560.087
563.376
566.256
568.696
570.65
572.06
572.877
572.984
572.322
570.861
568.626
565.571
561.672
556.922
551.329
544.916
537.722
529.801
521.214
512.034
502.338
492.206
481.721
470.963
460.013
448.944
437.826
426.723
415.691
404.779
394.028
383.474
373.146
363.065
353.249
343.707
334.445
325.466
316.768
308.346
300.196
292.308
284.675
277.287
270.135
263.209
256.499
249.994
243.684
237.561
231.616
225.839
220.223
214.763
209.451
204.285
199.263
194.384
189.65
185.067
180.643
176.384
172.304
168.372
164.439
39.3186
15.1974
10.7375
9.26215
8.69856
8.53771
8.59767
8.80412
9.11577
9.51016
9.97422
10.5001
11.0803
11.7118
12.392
13.1197
13.8934
14.714
15.5827
16.5012
17.4693
18.4881
19.5594
20.6855
21.8684
23.1103
24.4112
25.7758
27.2092
28.7156
30.299
31.9634
33.7129
35.5518
37.4843
39.5153
41.6501
43.893
46.2487
48.722
51.3183
54.0431
56.9017
59.9
63.0434
66.338
69.7895
73.404
77.1876
81.1462
85.2859
89.6127
94.1323
98.8506
103.773
108.905
114.251
119.816
125.604
131.618
137.862
144.338
151.048
157.993
165.173
172.588
180.237
188.117
196.226
204.56
213.115
221.883
230.859
240.034
249.4
258.947
268.664
278.538
288.557
298.707
308.973
319.337
329.784
340.296
350.853
361.436
372.024
382.598
393.136
403.616
414.018
424.321
434.503
444.543
454.422
464.118
473.611
482.88
491.904
500.664
509.141
517.318
525.18
532.711
539.9
546.738
553.216
559.328
565.071
570.441
575.438
580.062
584.315
588.193
591.695
594.816
597.54
599.853
601.734
603.151
604.04
604.355
603.993
602.845
600.992
598.389
594.999
590.797
585.774
579.932
573.286
565.865
557.716
548.894
539.464
529.5
519.077
508.274
497.173
485.853
474.389
462.852
451.31
439.82
428.434
417.198
406.151
395.323
384.74
374.419
364.372
354.607
345.126
335.927
327.008
318.362
309.981
301.857
293.981
286.343
278.933
271.74
264.755
257.968
251.368
244.948
238.699
232.613
226.684
220.906
215.276
209.792
204.454
199.265
194.229
189.353
184.646
180.117
175.738
171.376
39.8317
15.3725
10.8291
9.31526
8.7272
8.54963
8.59764
8.79562
9.09995
9.48806
9.94633
10.4658
11.042
11.6723
12.3541
13.0854
13.8659
14.6961
15.577
16.5099
17.4935
18.5313
19.6258
20.78
21.9968
23.2796
24.6317
26.0573
27.5611
29.1479
30.8225
32.5901
34.4557
36.4244
38.5018
40.6934
43.0052
45.4431
48.0131
50.7213
53.5746
56.5795
59.7426
63.0705
66.5698
70.2471
74.1091
78.1625
82.4137
86.8693
91.5354
96.4181
101.523
106.857
112.423
118.227
124.273
130.565
137.105
143.897
150.941
158.239
165.79
173.595
181.651
189.957
198.508
207.301
216.331
225.591
235.075
244.774
254.68
264.783
275.071
285.533
296.155
306.924
317.824
328.839
339.953
351.148
362.404
373.701
385.02
396.338
407.634
418.884
430.066
441.156
452.132
462.971
473.649
484.144
494.434
504.495
514.305
523.839
533.075
541.989
550.56
558.769
566.595
574.023
581.038
587.63
593.79
599.511
604.791
609.628
614.026
617.99
621.528
624.645
627.35
629.651
631.536
633.005
634.059
634.691
634.8
634.39
633.248
631.49
629.072
625.958
622.116
617.526
612.173
606.054
599.177
591.558
583.232
574.244
564.649
554.511
543.898
532.886
521.551
509.97
498.219
486.37
474.488
462.637
450.87
439.235
427.774
416.521
405.503
394.741
384.247
374.032
364.097
354.443
345.065
335.96
327.118
318.532
310.192
302.089
294.213
286.554
279.102
271.847
264.78
257.892
251.174
244.62
238.223
231.978
225.882
219.933
214.131
208.48
202.984
197.651
192.485
187.501
182.667
177.873
39.8009
15.3688
10.8211
9.30151
8.70725
8.52417
8.5676
8.76056
9.06364
9.45417
9.91795
10.4464
11.0344
11.6786
12.3752
13.1244
13.9267
14.7831
15.6949
16.6641
17.6929
18.784
19.9407
21.1668
22.4664
23.844
25.3045
26.853
28.4952
30.237
32.0845
34.0441
36.1221
38.3254
40.6605
43.1344
45.7534
48.5248
51.4568
54.558
57.8375
61.304
64.9646
68.8266
72.8974
77.184
81.6934
86.4322
91.4068
96.6232
102.087
107.803
113.776
120.01
126.509
133.275
140.311
147.616
155.193
163.04
171.156
179.538
188.184
197.09
206.251
215.66
225.312
235.199
245.313
255.645
266.184
276.921
287.843
298.938
310.192
321.592
333.123
344.768
356.51
368.333
380.217
392.144
404.094
416.045
427.975
439.863
451.685
463.417
475.035
486.514
497.83
508.96
519.879
530.565
540.993
551.14
560.98
570.487
579.634
588.397
596.752
604.676
612.148
619.147
625.659
631.674
637.18
642.171
646.649
650.612
654.065
657.025
659.506
661.515
663.083
664.238
664.947
665.24
665.151
664.722
663.715
662.205
660.175
657.588
654.414
650.632
646.218
641.153
635.42
629.01
621.917
614.145
605.714
596.654
587.004
576.812
566.139
555.05
543.616
531.91
520.004
507.969
495.872
483.776
471.737
459.807
448.028
436.439
425.068
413.94
403.069
392.466
382.135
372.077
362.289
352.766
343.501
334.486
325.712
317.171
308.851
300.745
292.842
285.133
277.61
270.262
263.084
256.067
249.205
242.495
235.934
229.519
223.252
217.136
211.176
205.379
199.751
194.306
189.013
183.789
39.309
15.2344
10.7386
9.23479
8.64819
8.47344
8.53121
8.74231
9.06545
9.47549
9.96167
10.5168
11.1366
11.8185
12.5614
13.3653
14.2311
15.1605
16.1562
17.2212
18.3593
19.5747
20.872
22.2565
23.7341
25.311
26.9938
28.7897
30.7061
32.7509
34.9323
37.2585
39.7378
42.3792
45.1914
48.1831
51.363
54.7401
58.3241
62.125
66.1536
70.4183
74.9287
79.6926
84.7169
90.0075
95.5695
101.408
107.526
113.927
120.613
127.586
134.848
142.398
150.235
158.357
166.762
175.445
184.401
193.626
203.112
212.852
222.838
233.062
243.513
254.182
265.058
276.13
287.387
298.816
310.405
322.14
334.008
345.995
358.085
370.264
382.515
394.823
407.168
419.535
431.905
444.258
456.575
468.835
481.018
493.101
505.061
516.874
528.517
539.965
551.193
562.18
572.901
583.334
593.455
603.24
612.661
621.692
630.303
638.466
646.158
653.353
660.028
666.162
671.739
676.75
681.182
685.03
688.3
690.992
693.111
694.687
695.743
696.278
696.362
696.067
695.247
694.041
692.484
690.586
688.298
685.596
682.459
678.864
674.795
670.244
665.198
659.637
653.54
646.888
639.656
631.832
623.429
614.448
604.908
594.84
584.291
573.314
561.971
550.33
538.456
526.417
514.28
502.107
489.958
477.884
465.931
454.14
442.544
431.167
420.029
409.141
398.509
388.136
378.019
368.154
358.535
349.155
340.006
331.079
322.366
313.857
305.545
297.419
289.472
281.696
274.084
266.629
259.326
252.171
245.162
238.297
231.579
225.011
218.598
212.347
206.265
200.367
194.622
188.98
38.3788
14.9446
10.5722
9.12556
8.58205
8.44758
8.54323
8.78973
9.15245
9.61164
10.1556
10.7779
11.4752
12.2463
13.0915
14.0124
15.0115
16.0922
17.2591
18.5174
19.8731
21.3326
22.9031
24.5927
26.4097
28.3631
30.4623
32.7175
35.1392
37.738
40.525
43.5113
46.708
50.1264
53.7775
57.6719
61.82
66.232
70.9173
75.8848
81.1412
86.6975
92.5685
98.7578
105.267
112.095
119.241
126.702
134.477
142.56
150.947
159.634
168.613
177.879
187.421
197.232
207.299
217.613
228.162
238.933
249.915
261.093
272.456
283.991
295.682
307.518
319.485
331.57
343.76
356.04
368.399
380.822
393.296
405.807
418.34
430.882
443.418
455.931
468.408
480.832
493.187
505.456
517.622
529.665
541.568