/*--------------------------------*- C++ -*----------------------------------*\
| =========                 |                                                 |
| \\      /  F ield         | OpenFOAM: The Open Source CFD Toolbox           |
|  \\    /   O peration     | Version:  2406                                  |
|   \\  /    A nd           | Website:  www.openfoam.com                      |
|    \\/     M anipulation  |                                                 |
\*---------------------------------------------------------------------------*/
FoamFile
{
    version     2.0;
    format      ascii;
    arch        "LSB;label=32;scalar=64";
    class       volScalarField;
    location    "150";
    object      k;
}
// * * * * * * * * * * * * * * * * * * * * * * * * * * * * * * * * * * * * * //

dimensions      [0 2 -2 0 0 0 0];

internalField   nonuniform List<scalar> 
12225
(
0.571497
0.987649
1.28117
1.45558
1.54168
1.57745
1.57569
1.56727
1.54719
1.52379
1.50055
1.47812
1.45808
1.43919
1.42357
1.40794
1.39728
1.38275
0.438448
0.496881
0.521947
0.534909
0.542869
0.54741
0.550206
0.552233
0.556032
0.559336
0.565663
0.570868
0.579615
0.586584
0.596737
0.604931
0.6151
0.624708
0.387569
0.417494
0.424188
0.421529
0.415057
0.40494
0.393835
0.382763
0.371986
0.362366
0.353305
0.346049
0.339027
0.334285
0.329136
0.326658
0.323033
0.322278
0.376179
0.384819
0.388123
0.387414
0.385438
0.381125
0.375697
0.369548
0.363129
0.356552
0.35012
0.343799
0.337829
0.332067
0.326784
0.321697
0.317168
0.312737
0.374177
0.375375
0.376396
0.375928
0.3748
0.372503
0.36962
0.366133
0.362488
0.358469
0.35456
0.350373
0.346525
0.342391
0.3388
0.334833
0.331619
0.327866
0.373736
0.372545
0.371997
0.371082
0.369918
0.368264
0.366341
0.364031
0.361642
0.358968
0.356374
0.353539
0.350919
0.348053
0.345526
0.34271
0.340359
0.33764
0.373769
0.371726
0.370231
0.368831
0.367465
0.36594
0.364345
0.362552
0.360735
0.358751
0.356814
0.354733
0.352772
0.35067
0.348753
0.346679
0.34486
0.342841
0.373818
0.371563
0.369621
0.36786
0.366251
0.364663
0.363122
0.361522
0.359945
0.358299
0.356696
0.355028
0.353431
0.351773
0.350218
0.348594
0.34711
0.345532
0.373833
0.371554
0.369458
0.367511
0.365723
0.364025
0.362429
0.360862
0.359356
0.357853
0.356402
0.354945
0.353544
0.352133
0.350789
0.349431
0.348155
0.34685
0.373832
0.37156
0.369425
0.36741
0.36553
0.363753
0.362087
0.360493
0.358981
0.357517
0.356117
0.35475
0.35344
0.352154
0.350923
0.349711
0.348556
0.347411
0.37383
0.371561
0.369417
0.367384
0.365468
0.363653
0.361942
0.360317
0.35878
0.35731
0.355913
0.354572
0.353291
0.352056
0.350876
0.349733
0.34864
0.34758
0.373828
0.371559
0.369412
0.367375
0.365448
0.36362
0.36189
0.360248
0.358691
0.35721
0.355804
0.354461
0.353183
0.35196
0.350793
0.349674
0.348603
0.347576
0.373827
0.371557
0.369407
0.367369
0.365437
0.363604
0.361865
0.360214
0.358647
0.357157
0.355741
0.354392
0.353109
0.351885
0.350719
0.349605
0.348541
0.347525
0.373827
0.371555
0.369403
0.367362
0.365428
0.363591
0.361849
0.360193
0.35862
0.357124
0.355701
0.354347
0.353058
0.35183
0.350659
0.349543
0.348477
0.347462
0.373826
0.371553
0.369399
0.367357
0.36542
0.363581
0.361835
0.360177
0.3586
0.357101
0.355674
0.354316
0.353022
0.35179
0.350615
0.349496
0.348426
0.347408
0.373826
0.371552
0.369396
0.367352
0.365413
0.363572
0.361824
0.360163
0.358584
0.357082
0.355652
0.354291
0.352995
0.351759
0.350582
0.349459
0.348387
0.347365
0.373825
0.371551
0.369395
0.367349
0.365408
0.363566
0.361816
0.360153
0.358571
0.357067
0.355635
0.354272
0.352973
0.351735
0.350555
0.34943
0.348356
0.347332
0.373825
0.371551
0.369393
0.367347
0.365405
0.363561
0.36181
0.360145
0.358562
0.357057
0.355623
0.354258
0.352957
0.351718
0.350536
0.349409
0.348334
0.347308
0.373825
0.371551
0.369393
0.367347
0.365404
0.36356
0.361808
0.360143
0.358559
0.357052
0.355618
0.354252
0.35295
0.35171
0.350527
0.349399
0.348323
0.347296
0.373825
0.371551
0.369394
0.367348
0.365406
0.363562
0.361811
0.360146
0.358562
0.357056
0.355621
0.354256
0.352954
0.351714
0.350531
0.349404
0.348328
0.347301
0.373826
0.371552
0.369396
0.367351
0.36541
0.363567
0.361816
0.360152
0.35857
0.357065
0.355632
0.354268
0.352968
0.351729
0.350549
0.349422
0.348348
0.347322
0.373826
0.371553
0.369398
0.367355
0.365416
0.363575
0.361828
0.360168
0.358591
0.357091
0.355664
0.354306
0.353011
0.351778
0.350601
0.349478
0.348406
0.347381
0.373826
0.371555
0.369401
0.367363
0.365432
0.363605
0.361875
0.360237
0.358681
0.357203
0.355793
0.35445
0.353166
0.351938
0.35076
0.349633
0.34855
0.34751
0.373827
0.371555
0.369413
0.367418
0.365544
0.363793
0.362138
0.360572
0.35907
0.357632
0.356239
0.354895
0.353587
0.352321
0.351088
0.349892
0.348726
0.347598
0.373819
0.371564
0.369582
0.367846
0.366223
0.364712
0.363219
0.361753
0.360266
0.358786
0.357287
0.355799
0.354305
0.352832
0.351359
0.349921
0.348492
0.347106
0.373767
0.371946
0.370917
0.369978
0.368912
0.367767
0.366326
0.364737
0.362933
0.361061
0.359059
0.357053
0.354969
0.352923
0.350842
0.348822
0.346788
0.344835
0.374093
0.3752
0.37726
0.377562
0.377091
0.375807
0.373488
0.370864
0.367802
0.364686
0.361327
0.358027
0.354601
0.351289
0.34792
0.344697
0.341468
0.338409
0.377677
0.394076
0.402944
0.402353
0.400307
0.396045
0.390665
0.385166
0.379133
0.373303
0.367221
0.361476
0.355718
0.350305
0.345127
0.340198
0.335725
0.331324
0.405777
0.438977
0.451189
0.45581
0.459113
0.462264
0.464978
0.467236
0.469235
0.470857
0.47251
0.47395
0.475576
0.477107
0.479254
0.480885
0.483736
0.485458
0.479013
0.684924
0.865147
0.990805
1.09437
1.17583
1.23937
1.28339
1.31501
1.33203
1.34316
1.34347
1.34134
1.33621
1.32773
1.3176
1.30665
1.29519
0.00730217
0.0123229
0.017378
0.0215505
0.0248074
0.0274672
0.0299101
0.0321383
0.0342812
0.0364993
0.0389795
0.0419172
0.0453249
0.0490756
0.0530793
0.0573046
0.0617431
0.0663996
0.0712749
0.076374
0.0816958
0.0872473
0.0930343
0.0990816
0.105311
0.11171
0.118269
0.124998
0.131905
0.13903
0.146429
0.153968
0.161636
0.169435
0.177356
0.185408
0.193587
0.201909
0.210376
0.219001
0.227783
0.23674
0.245869
0.255187
0.264686
0.274371
0.284218
0.294248
0.304451
0.314844
0.325418
0.336189
0.347146
0.358304
0.369652
0.381207
0.392952
0.404905
0.417048
0.429401
0.44194
0.454687
0.467616
0.480751
0.494062
0.507573
0.521253
0.535126
0.549159
0.563379
0.57775
0.592299
0.606988
0.621847
0.636833
0.651978
0.667238
0.682643
0.698153
0.713797
0.72953
0.745385
0.761312
0.777347
0.793432
0.809603
0.825803
0.842063
0.858334
0.874625
0.890904
0.907134
0.923287
0.939322
0.955209
0.970906
0.986401
1.0017
1.01688
1.0321
1.04704
1.06179
1.07627
1.09046
1.10431
1.11779
1.13084
1.14342
1.15547
1.16694
1.17776
1.18788
1.19721
1.20572
1.21331
1.21995
1.22557
1.2301
1.23328
1.2345
1.23506
1.23363
1.23117
1.22726
1.22164
1.2145
1.20583
1.19556
1.18344
1.16993
1.15507
1.13894
1.1217
1.10345
1.08435
1.0645
1.04409
1.02322
1.00208
0.980885
0.959935
0.941347
0.926631
0.912505
0.898368
0.88419
0.870019
0.85592
0.841943
0.82814
0.814544
0.80119
0.788102
0.775301
0.762804
0.750626
0.738777
0.727264
0.716092
0.705267
0.694797
0.68466
0.674862
0.665425
0.656367
0.647681
0.639361
0.631397
0.623785
0.616515
0.609578
0.602958
0.596634
0.590567
0.584703
0.57894
0.573075
0.566653
0.559415
0.532939
0.0185934
0.0325474
0.0442525
0.053086
0.060417
0.0668359
0.072745
0.0785614
0.0845462
0.0908533
0.0975552
0.10466
0.112144
0.119979
0.128136
0.136601
0.145374
0.154467
0.163888
0.173649
0.183754
0.194209
0.205014
0.216162
0.227634
0.23941
0.251476
0.263819
0.27643
0.289299
0.302415
0.315762
0.329336
0.343138
0.35717
0.371437
0.385947
0.400713
0.415745
0.431055
0.446654
0.462561
0.478793
0.495372
0.512325
0.529653
0.547296
0.565265
0.583568
0.602214
0.621208
0.640559
0.660271
0.680353
0.700808
0.721642
0.742856
0.764456
0.78644
0.808813
0.831571
0.854718
0.878248
0.902164
0.926458
0.951131
0.976173
1.00158
1.02735
1.05348
1.07995
1.10677
1.13392
1.1614
1.18919
1.2173
1.24571
1.27441
1.3034
1.33267
1.36221
1.39202
1.42207
1.45239
1.48293
1.51371
1.54471
1.57593
1.60735
1.63898
1.67079
1.70275
1.73484
1.76703
1.79927
1.83151
1.8637
1.89575
1.92755
1.95904
1.99049
2.02185
2.05308
2.08413
2.11492
2.1454
2.17549
2.20509
2.23412
2.26245
2.28997
2.31654
2.34201
2.36624
2.38905
2.41028
2.42975
2.44734
2.46281
2.47573
2.48542
2.49281
2.49606
2.49788
2.49588
2.49055
2.4819
2.46996
2.45475
2.43645
2.41518
2.39114
2.36453
2.33558
2.30454
2.27166
2.23723
2.20149
2.16471
2.1272
2.08929
2.05136
2.01367
1.97597
1.93837
1.90104
1.86414
1.8278
1.79213
1.75721
1.72311
1.68987
1.65755
1.62615
1.59571
1.56623
1.53771
1.51016
1.48358
1.45795
1.43327
1.40945
1.38655
1.36456
1.34348
1.32329
1.30395
1.28546
1.26777
1.25085
1.23468
1.21922
1.20442
1.19023
1.17658
1.16337
1.15038
1.13746
1.12225
1.08436
0.0284815
0.0525085
0.0682756
0.0800667
0.090099
0.0992686
0.108073
0.116845
0.125803
0.135084
0.144756
0.154838
0.165326
0.176202
0.187451
0.199065
0.211046
0.223401
0.236138
0.249267
0.262791
0.276713
0.29103
0.305732
0.320805
0.336235
0.352008
0.368115
0.384544
0.401287
0.418335
0.435682
0.453327
0.471275
0.489528
0.508095
0.526982
0.546199
0.565754
0.585657
0.605916
0.626545
0.647555
0.668956
0.690757
0.712962
0.735573
0.758597
0.782044
0.805924
0.830245
0.855015
0.880241
0.90593
0.932087
0.958717
0.985823
1.01341
1.04147
1.07002
1.09904
1.12854
1.15851
1.18895
1.21985
1.25121
1.28302
1.31526
1.34794
1.38103
1.41453
1.44842
1.4827
1.51734
1.55234
1.58767
1.62332
1.65928
1.69553
1.73205
1.76884
1.80586
1.84312
1.88058
1.91824
1.95608
1.99408
2.03223
2.07051
2.10892
2.14744
2.18605
2.22472
2.26344
2.30218
2.34094
2.37968
2.4184
2.45707
2.49565
2.53416
2.57254
2.61077
2.64877
2.68648
2.72382
2.76071
2.79704
2.8327
2.86755
2.90145
2.93423
2.9657
2.99566
3.0239
3.05018
3.07426
3.09589
3.11482
3.13071
3.14324
3.15235
3.15681
3.15885
3.1566
3.15022
3.13973
3.12517
3.10662
3.08421
3.05814
3.02862
2.9959
2.96028
2.92205
2.88153
2.83904
2.7949
2.74944
2.70301
2.65605
2.60894
2.56184
2.51476
2.46783
2.42123
2.37515
2.32973
2.28512
2.24141
2.19869
2.15703
2.11647
2.07705
2.03879
2.00171
1.96581
1.93109
1.89755
1.86518
1.83396
1.80385
1.77486
1.74696
1.72013
1.69436
1.6696
1.64584
1.62305
1.60118
1.58021
1.5601
1.5408
1.52228
1.50447
1.48734
1.47073
1.45461
1.43798
1.40591
0.0365192
0.0708449
0.0907249
0.105215
0.117443
0.128606
0.139329
0.149993
0.160839
0.172018
0.183614
0.19566
0.208164
0.221116
0.234507
0.248327
0.262577
0.277257
0.292373
0.307927
0.32392
0.340346
0.357198
0.374464
0.392135
0.410203
0.42866
0.447494
0.466698
0.486262
0.506182
0.526453
0.547075
0.56805
0.589381
0.611076
0.633139
0.655579
0.678404
0.701624
0.725247
0.749286
0.77375
0.798652
0.823999
0.849803
0.876071
0.902814
0.930044
0.95777
0.986002
1.01475
1.04402
1.07383
1.10417
1.13505
1.16648
1.19846
1.231
1.26408
1.29771
1.33189
1.36661
1.40187
1.43766
1.47397
1.51078
1.5481
1.5859
1.62417
1.6629
1.70207
1.74166
1.78165
1.82202
1.86275
1.90382
1.9452
1.98688
2.02883
2.07102
2.11344
2.15606
2.19886
2.24181
2.2849
2.3281
2.37139
2.41476
2.45819
2.50167
2.54518
2.5887
2.6322
2.6757
2.71915
2.76257
2.80591
2.84918
2.89232
2.93532
2.97815
3.02074
3.06305
3.10502
3.14656
3.18759
3.228
3.26769
3.3065
3.34429
3.38086
3.41604
3.44958
3.48126
3.51081
3.53795
3.5624
3.58387
3.60207
3.61671
3.62746
3.63327
3.63589
3.63396
3.62742
3.61625
3.60048
3.58019
3.55552
3.52666
3.49387
3.45741
3.41761
3.37479
3.32931
3.28153
3.23184
3.18061
3.12827
3.07524
3.02186
2.96835
2.91485
2.86151
2.80853
2.75611
2.70441
2.65358
2.60374
2.55499
2.5074
2.46103
2.41591
2.37209
2.32957
2.28837
2.24847
2.20988
2.17259
2.13657
2.1018
2.06826
2.03593
2.00478
1.97478
1.9459
1.91812
1.8914
1.8657
1.84099
1.81725
1.79443
1.77251
1.75145
1.73126
1.71187
1.69329
1.67469
1.64625
0.0430139
0.0873442
0.11124
0.128355
0.142635
0.155552
0.167861
0.180007
0.192273
0.204841
0.217822
0.231275
0.245225
0.259677
0.274629
0.290073
0.306006
0.322423
0.339323
0.356704
0.37456
0.392887
0.411676
0.430921
0.450612
0.47074
0.491295
0.512269
0.533653
0.55544
0.577626
0.600207
0.623183
0.646555
0.670327
0.694502
0.719087
0.744089
0.769516
0.795379
0.821689
0.848456
0.875693
0.903411
0.931622
0.960338
0.989571
1.01933
1.04964
1.08049
1.11191
1.14391
1.17649
1.20967
1.24345
1.27783
1.31283
1.34845
1.38468
1.42154
1.45901
1.4971
1.5358
1.5751
1.615
1.65548
1.69654
1.73816
1.78032
1.823
1.8662
1.90988
1.95402
1.99861
2.04361
2.08899
2.13474
2.18081
2.22719
2.27383
2.32072
2.36781
2.41509
2.46251
2.51005
2.55768
2.60537
2.6531
2.70085
2.74859
2.79632
2.84399
2.89161
2.93914
2.98658
3.0339
3.08109
3.12814
3.17501
3.22169
3.26814
3.31433
3.36022
3.40576
3.45089
3.49554
3.53965
3.5831
3.62578
3.66757
3.70831
3.74781
3.78589
3.8223
3.85681
3.88913
3.91898
3.94603
3.96999
3.99052
4.00736
4.02017
4.02793
4.03164
4.03082
4.02499
4.01412
3.99823
3.97738
3.9517
3.92139
3.8867
3.84791
3.80537
3.75942
3.71046
3.65891
3.60518
3.5497
3.4929
3.4352
3.37695
3.31843
3.25983
3.20136
3.14324
3.08567
3.02884
2.9729
2.91799
2.86423
2.81168
2.76043
2.71051
2.66197
2.61481
2.56905
2.5247
2.48173
2.44015
2.39992
2.36104
2.32347
2.28718
2.25215
2.21835
2.18574
2.15429
2.12397
2.09475
2.0666
2.03948
2.01338
1.98828
1.96418
1.9411
1.91906
1.8981
1.87744
1.85035
0.0491322
0.101918
0.129476
0.149041
0.165235
0.179762
0.193484
0.206907
0.220356
0.234046
0.248116
0.262651
0.277699
0.293282
0.309407
0.326075
0.343281
0.361021
0.379288
0.398076
0.41738
0.437191
0.457502
0.478304
0.499588
0.521345
0.543567
0.566243
0.589369
0.612936
0.636942
0.661383
0.68626
0.711573
0.737325
0.763523
0.790171
0.817277
0.844851
0.872903
0.901444
0.930486
0.960041
0.990123
1.02074
1.05192
1.08366
1.11598
1.1489
1.18242
1.21657
1.25135
1.28678
1.32287
1.35962
1.39704
1.43515
1.47394
1.51342
1.5536
1.59446
1.63601
1.67824
1.72115
1.76472
1.80895
1.85382
1.89932
1.94543
1.99213
2.03939
2.0872
2.13552
2.18432
2.23358
2.28326
2.33332
2.38374
2.43447
2.48548
2.53672
2.58817
2.63977
2.6915
2.74331
2.79516
2.84703
2.89888
2.95067
3.00239
3.05401
3.10549
3.15681
3.20796
3.25891
3.30963
3.36012
3.41034
3.46028
3.50992
3.55923
3.60818
3.65675
3.70489
3.75255
3.79969
3.84623
3.89208
3.93716
3.98134
4.02447
4.0664
4.10692
4.14582
4.18284
4.21771
4.25012
4.27975
4.30627
4.32932
4.3486
4.36373
4.37404
4.3796
4.38051
4.37617
4.36648
4.3514
4.33097
4.30531
4.27461
4.23909
4.19906
4.15488
4.10693
4.05563
4.00142
3.94474
3.88605
3.82578
3.76437
3.7022
3.63956
3.57673
3.51393
3.45143
3.38942
3.32812
3.26771
3.20833
3.15011
3.09313
3.03748
2.98321
2.93036
2.87895
2.82899
2.78049
2.73344
2.68783
2.64364
2.60084
2.55941
2.51933
2.48055
2.44306
2.40681
2.37177
2.33791
2.3052
2.27362
2.24314
2.21375
2.18545
2.15827
2.13225
2.10746
2.08395
2.061
2.03367
0.0568183
0.114801
0.14538
0.167065
0.18496
0.200939
0.215935
0.230502
0.244992
0.259648
0.274631
0.290051
0.305975
0.322442
0.339474
0.357078
0.375255
0.394002
0.413313
0.433182
0.4536
0.47456
0.496053
0.51807
0.540602
0.563642
0.58718
0.611209
0.635723
0.660717
0.686188
0.712133
0.738554
0.765451
0.792829
0.820692
0.849048
0.877904
0.907269
0.937155
0.967574
0.998537
1.03006
1.06215
1.09484
1.12812
1.16202
1.19656
1.23175
1.2676
1.30414
1.34137
1.3793
1.41796
1.45736
1.4975
1.53839
1.58004
1.62245
1.66563
1.70958
1.75429
1.79976
1.84599
1.89297
1.94068
1.98911
2.03824
2.08805
2.13852
2.18962
2.24133
2.29361
2.34642
2.39975
2.45353
2.50774
2.56233
2.61725
2.67246
2.72791
2.78355
2.83935
2.89523
2.95117
3.00711
3.06301
3.11882
3.1745
3.23003
3.28535
3.34044
3.39527
3.44979
3.504
3.55785
3.61132
3.66441
3.71707
3.76931
3.82109
3.8724
3.92321
3.97349
4.02322
4.07236
4.12084
4.16862
4.2156
4.26169
4.30677
4.35069
4.39327
4.4343
4.47356
4.51075
4.54559
4.57775
4.60686
4.63257
4.65451
4.67229
4.68546
4.69353
4.69678
4.69461
4.68685
4.6734
4.65426
4.62953
4.59934
4.56396
4.52368
4.47886
4.4299
4.37724
4.32132
4.2626
4.20156
4.13866
4.07433
4.00898
3.94295
3.87654
3.81005
3.74373
3.67782
3.61256
3.54813
3.48469
3.42239
3.36133
3.3016
3.24325
3.18634
3.1309
3.07693
3.02446
2.97346
2.92394
2.87587
2.82923
2.784
2.74014
2.69762
2.65642
2.6165
2.57782
2.54036
2.50409
2.46899
2.43504
2.40225
2.37062
2.3402
2.31108
2.28333
2.25702
2.23146
2.20273
0.0639526
0.125659
0.158772
0.182275
0.201659
0.218929
0.23507
0.250664
0.266089
0.2816
0.297377
0.313547
0.330194
0.347372
0.365114
0.383439
0.402354
0.42186
0.441956
0.462635
0.483891
0.505717
0.528104
0.551045
0.574532
0.598557
0.623114
0.648195
0.673796
0.699914
0.726546
0.753691
0.781351
0.809529
0.838228
0.867454
0.897214
0.927518
0.958375
0.989798
1.0218
1.05439
1.08759
1.12141
1.15586
1.19098
1.22676
1.26324
1.30042
1.33834
1.37699
1.4164
1.4566
1.49758
1.53937
1.58198
1.62542
1.66969
1.71481
1.76078
1.8076
1.85527
1.90379
1.95315
2.00334
2.05435
2.10617
2.15877
2.21213
2.26623
2.32103
2.37651
2.43264
2.48936
2.54664
2.60444
2.6627
2.72138
2.78041
2.83976
2.89935
2.95914
3.01906
3.07905
3.13906
3.19903
3.25889
3.3186
3.3781
3.43735
3.49629
3.55488
3.61308
3.67084
3.72814
3.78493
3.8412
3.89691
3.95206
4.00661
4.06056
4.11389
4.16658
4.21863
4.27001
4.3207
4.37068
4.4199
4.4683
4.51582
4.56236
4.60779
4.65198
4.69474
4.73584
4.77505
4.81207
4.84657
4.87819
4.90655
4.93125
4.95189
4.96802
4.97917
4.98521
4.98579
4.9806
4.9695
4.95242
4.92942
4.90064
4.86631
4.82672
4.78221
4.73318
4.68007
4.62333
4.56343
4.50087
4.4361
4.36959
4.30177
4.23301
4.16366
4.09403
4.02442
3.9551
3.88631
3.81826
3.75113
3.68508
3.62023
3.55667
3.49448
3.43371
3.3744
3.31657
3.26023
3.20537
3.152
3.1001
3.04963
3.00059
2.95294
2.90664
2.86167
2.818
2.7756
2.73443
2.69447
2.65572
2.61815
2.58179
2.54667
2.51283
2.48038
2.44942
2.42
2.39149
2.36064
0.0701711
0.134461
0.169646
0.194678
0.215335
0.233726
0.250874
0.267381
0.283635
0.299903
0.316375
0.333187
0.350436
0.368188
0.386487
0.405361
0.424826
0.44489
0.465553
0.486816
0.508675
0.531124
0.554157
0.577769
0.601953
0.626703
0.652015
0.677883
0.704305
0.731279
0.758803
0.786879
0.815509
0.844698
0.874449
0.904771
0.935671
0.96716
0.999248
1.03195
1.06527
1.09924
1.13387
1.16917
1.20516
1.24186
1.2793
1.31749
1.35645
1.3962
1.43676
1.47816
1.5204
1.56352
1.60751
1.65241
1.69822
1.74495
1.79261
1.84121
1.89076
1.94124
1.99267
2.04503
2.09831
2.15251
2.2076
2.26357
2.32039
2.37803
2.43646
2.49564
2.55554
2.61611
2.6773
2.73906
2.80134
2.86407
2.9272
2.99065
3.05437
3.11828
3.18231
3.24639
3.31046
3.37443
3.43824
3.50182
3.5651
3.62803
3.69053
3.75255
3.81404
3.87494
3.93521
3.99482
4.05372
4.11188
4.16929
4.22592
4.28176
4.3368
4.39104
4.44447
4.49709
4.5489
4.59988
4.65003
4.69931
4.7477
4.79513
4.84151
4.88674
4.93066
4.97311
5.01384
5.05261
5.0891
5.12295
5.15377
5.18114
5.20464
5.22379
5.23816
5.24741
5.25115
5.24908
5.24093
5.22661
5.20613
5.1796
5.1472
5.1092
5.06591
5.01774
4.96509
4.90842
4.84821
4.78495
4.71911
4.65118
4.58161
4.5108
4.43913
4.36695
4.29459
4.22234
4.15047
4.07922
4.00877
3.93931
3.87096
3.80384
3.73804
3.67361
3.61061
3.54905
3.48896
3.43034
3.37318
3.31748
3.26321
3.21035
3.15888
3.10876
3.05996
3.01246
2.96623
2.92124
2.87748
2.83493
2.7936
2.7535
2.71469
2.67723
2.64123
2.60679
2.57397
2.54218
2.5087
0.0754135
0.141297
0.178115
0.204392
0.226103
0.245437
0.263444
0.280735
0.297706
0.314627
0.331692
0.349044
0.366786
0.384993
0.403718
0.422997
0.442854
0.463302
0.484351
0.506003
0.52826
0.55112
0.574581
0.59864
0.623293
0.648538
0.674371
0.70079
0.727794
0.755383
0.78356
0.812326
0.841686
0.871646
0.902213
0.933394
0.9652
0.997642
1.03073
1.06449
1.09892
1.13404
1.16988
1.20646
1.24378
1.28189
1.32078
1.3605
1.40106
1.44248
1.48479
1.52801
1.57215
1.61725
1.66332
1.71037
1.75843
1.8075
1.85759
1.90872
1.96089
2.0141
2.06835
2.12363
2.17993
2.23724
2.29555
2.35483
2.41505
2.47618
2.53819
2.60104
2.66468
2.72907
2.79414
2.85985
2.92612
2.99289
3.06008
3.12764
3.19546
3.26349
3.33162
3.39979
3.4679
3.53586
3.6036
3.67102
3.73805
3.80461
3.87062
3.93602
4.00072
4.06467
4.12781
4.19009
4.25146
4.3119
4.37136
4.42982
4.48728
4.54372
4.59914
4.65356
4.70697
4.7594
4.81086
4.86137
4.91092
4.95953
5.00717
5.0538
5.09936
5.14375
5.18683
5.22843
5.26832
5.30622
5.3418
5.37467
5.4044
5.43055
5.45262
5.47016
5.48274
5.48996
5.4914
5.48678
5.47584
5.45859
5.43508
5.40545
5.36992
5.32878
5.28238
5.23112
5.17544
5.11582
5.05273
4.98667
4.91812
4.84756
4.77543
4.70212
4.62803
4.55351
4.47888
4.40443
4.33042
4.25707
4.18457
4.11307
4.0427
3.97356
3.90571
3.83922
3.77411
3.71042
3.64815
3.58731
3.52788
3.46985
3.4132
3.3579
3.30394
3.25127
3.19989
3.14976
3.10086
3.05318
3.00672
2.96149
2.91751
2.87484
2.83357
2.7938
2.75565
2.71916
2.68378
2.64719
0.0796793
0.146303
0.184347
0.211596
0.234144
0.254236
0.272943
0.29088
0.308441
0.325899
0.343448
0.361232
0.379358
0.397907
0.416937
0.436491
0.456599
0.477282
0.498555
0.520427
0.542904
0.56599
0.589687
0.613996
0.638918
0.664452
0.690599
0.71736
0.744736
0.77273
0.801346
0.830591
0.860471
0.890993
0.922168
0.954005
0.986515
1.01971
1.05361
1.08823
1.12358
1.15968
1.19657
1.23425
1.27275
1.31209
1.3523
1.39341
1.43544
1.47841
1.52235
1.56728
1.61324
1.66023
1.70828
1.75742
1.80765
1.85899
1.91146
1.96507
2.01981
2.0757
2.13273
2.1909
2.25019
2.31059
2.37209
2.43465
2.49825
2.56286
2.62843
2.69492
2.76229
2.83047
2.89941
2.96903
3.03927
3.11006
3.18131
3.25293
3.32484
3.39695
3.46915
3.54136
3.61347
3.68538
3.75699
3.8282
3.89892
3.96904
4.03848
4.10714
4.17494
4.24181
4.30767
4.37247
4.43613
4.49862
4.55989
4.61992
4.67868
4.73617
4.79238
4.84733
4.90105
4.95356
5.0049
5.05512
5.10425
5.15233
5.19939
5.24544
5.29048
5.33446
5.37731
5.4189
5.45908
5.4976
5.53418
5.56845
5.6
5.62837
5.65305
5.67356
5.68943
5.70019
5.70548
5.7048
5.6978
5.68439
5.66463
5.63857
5.60637
5.56827
5.52459
5.47567
5.42195
5.36386
5.30188
5.23651
5.16823
5.09753
5.02486
4.95068
4.87538
4.79936
4.72296
4.6465
4.57027
4.4945
4.4194
4.34516
4.2719
4.19974
4.12877
4.05905
3.99063
3.92354
3.8578
3.79341
3.73036
3.66867
3.60829
3.54922
3.49144
3.43491
3.37963
3.32557
3.27271
3.22105
3.17059
3.12135
3.07338
3.02672
2.98148
2.93777
2.89569
2.85532
2.8161
2.77607
0.0829878
0.149626
0.188522
0.216487
0.239663
0.260331
0.279574
0.298007
0.316023
0.33389
0.351803
0.369903
0.388301
0.407077
0.426295
0.446002
0.466234
0.487018
0.508373
0.530316
0.552858
0.576008
0.599775
0.624163
0.649179
0.674827
0.70111
0.728033
0.7556
0.783818
0.812695
0.84224
0.872463
0.903375
0.934988
0.967315
1.00037
1.03416
1.06872
1.10405
1.14018
1.17713
1.21492
1.25359
1.29315
1.33364
1.37508
1.41749
1.46092
1.50537
1.55089
1.5975
1.64522
1.69408
1.7441
1.7953
1.8477
1.90132
1.95616
2.01225
2.06958
2.12816
2.18798
2.24905
2.31134
2.37484
2.43952
2.50538
2.57236
2.64044
2.70956
2.77969
2.85075
2.9227
2.99547
3.06898
3.14315
3.2179
3.29313
3.36876
3.44468
3.52078
3.59697
3.67312
3.74913
3.82487
3.90023
3.9751
4.04935
4.12288
4.19558
4.26734
4.33805
4.40764
4.47601
4.54308
4.60877
4.67303
4.73581
4.79705
4.85674
4.91485
4.97139
5.02638
5.07984
5.13182
5.18237
5.23157
5.27948
5.32619
5.37178
5.41631
5.45984
5.5024
5.54398
5.58453
5.62396
5.66212
5.69877
5.73359
5.76621
5.79615
5.82294
5.84605
5.86496
5.87919
5.88842
5.89188
5.88936
5.88032
5.86494
5.8432
5.81517
5.78103
5.74102
5.69546
5.64471
5.58918
5.52932
5.46562
5.39857
5.32865
5.25635
5.18213
5.10643
5.02965
4.95218
4.87436
4.79651
4.71888
4.64171
4.5652
4.48949
4.41472
4.34099
4.26838
4.19695
4.12672
4.05774
3.99001
3.92354
3.85832
3.79435
3.73161
3.67009
3.60976
3.55062
3.49264
3.43583
3.38017
3.32568
3.27239
3.22034
3.16961
3.12029
3.07251
3.02636
2.98191
2.93868
2.89496
0.085381
0.15141
0.190812
0.219256
0.242864
0.263932
0.283548
0.302324
0.320652
0.338795
0.356944
0.37524
0.393792
0.412681
0.431972
0.451717
0.471956
0.492719
0.514033
0.535918
0.558393
0.581472
0.605168
0.629494
0.654459
0.680075
0.70635
0.73329
0.760906
0.789207
0.818206
0.847917
0.878353
0.909531
0.941463
0.974167
1.00766
1.04195
1.07707
1.11302
1.14984
1.18755
1.22619
1.26579
1.30637
1.34797
1.39061
1.43433
1.47915
1.52511
1.57223
1.62054
1.67008
1.72085
1.7729
1.82623
1.88087
1.93683
1.99413
2.05277
2.11276
2.1741
2.23678
2.3008
2.36614
2.43278
2.5007
2.56987
2.64025
2.7118
2.78446
2.85819
2.93292
3.00859
3.08511
3.16241
3.24041
3.319
3.39809
3.47757
3.55733
3.63726
3.71723
3.79712
3.87681
3.95615
4.03502
4.11328
4.19081
4.26747
4.34314
4.4177
4.49102
4.56299
4.63352
4.70251
4.76985
4.83549
4.89934
4.96136
5.02149
5.07972
5.13604
5.19046
5.24302
5.29377
5.34278
5.39015
5.43597
5.48038
5.5235
5.56547
5.60641
5.64641
5.68554
5.72386
5.76139
5.79804
5.83367
5.86803
5.90078
5.93149
5.95968
5.98481
6.00634
6.02374
6.03658
6.04443
6.04659
6.04266
6.03221
6.01549
5.99247
5.96319
5.92785
5.88668
5.83998
5.7881
5.73146
5.67052
5.60575
5.53764
5.46669
5.39337
5.31815
5.24146
5.16372
5.08529
5.00651
4.92767
4.84904
4.77081
4.69318
4.61629
4.54025
4.46515
4.39107
4.31805
4.24614
4.17535
4.10569
4.03718
3.96981
3.90357
3.83846
3.77446
3.71155
3.64975
3.58903
3.52942
3.47092
3.41358
3.35746
3.30261
3.24916
3.19722
3.1469
3.09828
3.0509
3.00335
0.0868051
0.151656
0.191301
0.220044
0.243923
0.265234
0.28507
0.304043
0.32254
0.340823
0.359079
0.377449
0.396037
0.414927
0.434185
0.453862
0.474002
0.49464
0.515806
0.537528
0.559829
0.58273
0.606251
0.630408
0.655218
0.680698
0.706862
0.733721
0.761291
0.789587
0.818627
0.848431
0.879016
0.910401
0.942607
0.975652
1.00955
1.04433
1.08
1.11657
1.15405
1.19253
1.23204
1.2726
1.31426
1.35703
1.40096
1.44607
1.4924
1.53998
1.58884
1.639
1.6905
1.74336
1.79759
1.85322
1.91026
1.96874
2.02864
2.09
2.15279
2.21702
2.28269
2.34978
2.41826
2.48812
2.55933
2.63184
2.70562
2.78062
2.85678
2.93404
3.01234
3.09159
3.17172
3.25264
3.33426
3.41646
3.49914
3.5822
3.6655
3.74892
3.83233
3.91559
3.99856
4.0811
4.16305
4.24428
4.32463
4.40396
4.48213
4.55899
4.63442
4.70827
4.78045
4.85081
4.91927
4.98572
5.05007
5.11226
5.17222
5.22992
5.28533
5.33848
5.38938
5.4381
5.48473
5.52937
5.57215
5.61323
5.65282
5.6911
5.72827
5.76451
5.79998
5.8348
5.86915
5.90306
5.93647
5.96922
6.00104
6.03155
6.06028
6.08669
6.11024
6.13039
6.14662
6.15848
6.16555
6.16704
6.16238
6.15132
6.1341
6.11061
6.08095
6.04527
6.00377
5.95672
5.90447
5.84745
5.78612
5.72095
5.65244
5.58107
5.50732
5.43167
5.35454
5.27633
5.19742
5.11812
5.03871
4.95943
4.88048
4.80203
4.7242
4.64711
4.57083
4.49544
4.42098
4.34748
4.27497
4.20345
4.13295
4.06345
3.99496
3.92747
3.86098
3.79549
3.731
3.66754
3.60513
3.54381
3.48364
3.42471
3.36713
3.31103
3.25651
3.20366
3.15208
3.10063
0.0875753
0.151013
0.190551
0.219308
0.24322
0.264567
0.284435
0.303433
0.321944
0.340226
0.358463
0.376789
0.39531
0.414107
0.433247
0.452783
0.47276
0.493216
0.514186
0.535701
0.557789
0.580475
0.603783
0.627737
0.652359
0.67767
0.70369
0.730439
0.757938
0.786209
0.815276
0.845163
0.875894
0.907495
0.939988
0.9734
1.00775
1.04306
1.07935
1.11664
1.15493
1.19433
1.23488
1.2766
1.31952
1.36368
1.40913
1.45588
1.50399
1.55347
1.60436
1.65668
1.71045
1.76569
1.82241
1.88064
1.94038
2.00165
2.06443
2.12874
2.19457
2.2619
2.33072
2.40101
2.47275
2.5459
2.62042
2.69628
2.77341
2.85178
2.9313
3.01193
3.09357
3.17615
3.25959
3.34378
3.42862
3.51402
3.59984
3.68596
3.77227
3.85863
3.94488
4.0309
4.11652
4.20159
4.28596
4.36945
4.45192
4.5332
4.61313
4.69156
4.76834
4.84332
4.91637
4.98735
5.05615
5.12262
5.18669
5.24824
5.30721
5.36355
5.41722
5.4682
5.51655
5.56233
5.60562
5.64654
5.68524
5.72191
5.75686
5.7903
5.82251
5.85377
5.88431
5.91421
5.94372
5.97322
6.00282
6.03246
6.06199
6.09108
6.11932
6.1462
6.17118
6.19372
6.21326
6.22926
6.24127
6.24885
6.25077
6.24647
6.23586
6.21905
6.19613
6.16708
6.132
6.09102
6.04443
5.99259
5.93595
5.87494
5.81005
5.74177
5.6706
5.59702
5.5215
5.44446
5.36629
5.28736
5.20796
5.12837
5.04879
4.96943
4.89042
4.8119
4.73397
4.6567
4.58015
4.50438
4.4294
4.35526
4.28196
4.20951
4.13793
4.06722
3.99738
3.92842
3.86036
3.79322
3.72704
3.66187
3.59778
3.53486
3.47322
3.413
3.3543
3.29725
3.24148
3.18612
0.0875412
0.149241
0.188351
0.216943
0.240744
0.261993
0.281764
0.300659
0.319054
0.337207
0.355296
0.373456
0.39179
0.41038
0.42929
0.448577
0.468287
0.488463
0.509145
0.530368
0.552168
0.574576
0.597624
0.621343
0.645763
0.670914
0.696824
0.723525
0.751046
0.779418
0.808671
0.838836
0.869936
0.902003
0.93507
0.969174
1.00436
1.04061
1.07796
1.11642
1.15598
1.19674
1.23876
1.28209
1.32676
1.37282
1.4203
1.46925
1.51969
1.57167
1.62518
1.68025
1.73688
1.79509
1.85487
1.91625
1.9792
2.04374
2.10985
2.17752
2.24674
2.31748
2.38971
2.46341
2.53854
2.61505
2.69289
2.77203
2.85239
2.93392
3.01655
3.1002
3.1848
3.27025
3.35647
3.44335
3.53079
3.61867
3.70689
3.7953
3.88378
3.97219
4.06038
4.1482
4.23549
4.3221
4.40785
4.49257
4.5761
4.65825
4.73886
4.81776
4.8948
4.9698
5.04263
5.11313
5.18115
5.24655
5.30921
5.36902
5.42589
5.47974
5.53053
5.57822
5.62286
5.66452
5.7033
5.73932
5.77274
5.80368
5.83229
5.85907
5.88442
5.90874
5.9324
5.95576
5.97959
6.00396
6.02902
6.05482
6.08127
6.10812
6.13501
6.1615
6.1871
6.21125
6.23338
6.25293
6.26935
6.28218
6.29066
6.29448
6.2928
6.28417
6.26979
6.24922
6.22194
6.1884
6.14885
6.10358
6.05299
5.9975
5.93754
5.8736
5.80619
5.73583
5.66299
5.58813
5.51167
5.434
5.35546
5.27633
5.19687
5.11728
5.03775
4.9584
4.87937
4.80074
4.7226
4.64499
4.56797
4.49157
4.41583
4.34077
4.2664
4.19274
4.1198
4.0476
3.97618
3.90555
3.83577
3.76689
3.699
3.6322
3.56659
3.50232
3.43952
3.37831
3.31837
3.25914
0.0868388
0.146025
0.184484
0.212723
0.236241
0.257232
0.276758
0.295418
0.313586
0.331512
0.349374
0.367304
0.385405
0.40376
0.422436
0.441492
0.460979
0.480944
0.501432
0.522484
0.544144
0.566449
0.589439
0.613155
0.637637
0.662925
0.689052
0.716055
0.743975
0.772854
0.802739
0.833692
0.865696
0.898789
0.933015
0.96841
1.005
1.04271
1.08164
1.12187
1.16344
1.20642
1.25083
1.29672
1.34412
1.39307
1.44359
1.4957
1.54943
1.60479
1.6618
1.72044
1.7807
1.84259
1.90609
1.97118
2.03786
2.1061
2.17587
2.24715
2.3199
2.39409
2.46968
2.54662
2.62486
2.70436
2.78506
2.8669
2.94982
3.03375
3.11862
3.20436
3.29088
3.37809
3.46591
3.55424
3.64296
3.73198
3.82116
3.9104
3.99955
4.08848
4.17704
4.26509
4.35246
4.43899
4.52451
4.60885
4.69181
4.77323
4.85293
4.93074
5.00647
5.07997
5.15107
5.21961
5.28541