/*--------------------------------*- C++ -*----------------------------------*\
| =========                 |                                                 |
| \\      /  F ield         | OpenFOAM: The Open Source CFD Toolbox           |
|  \\    /   O peration     | Version:  2406                                  |
|   \\  /    A nd           | Website:  www.openfoam.com                      |
|    \\/     M anipulation  |                                                 |
\*---------------------------------------------------------------------------*/
FoamFile
{
    version     2.0;
    format      ascii;
    arch        "LSB;label=32;scalar=64";
    class       volScalarField;
    location    "150";
    object      nut;
}
// * * * * * * * * * * * * * * * * * * * * * * * * * * * * * * * * * * * * * //

dimensions      [0 2 -1 0 0 0 0];

internalField   nonuniform List<scalar> 
12225
(
2.70743e-05
3.55747e-05
4.05232e-05
4.31925e-05
4.44516e-05
4.49646e-05
4.49112e-05
4.48721e-05
4.45038e-05
4.41857e-05
4.38525e-05
4.35248e-05
4.3229e-05
4.2948e-05
4.27143e-05
4.24787e-05
4.23188e-05
4.20951e-05
0.000212992
8.46428e-05
5.59086e-05
4.40582e-05
3.83763e-05
3.53568e-05
3.3845e-05
3.30873e-05
3.28549e-05
3.28707e-05
3.32264e-05
3.35844e-05
3.42435e-05
3.47755e-05
3.55995e-05
3.61998e-05
3.71411e-05
3.76336e-05
0.000656953
0.00030656
0.000193992
0.000142124
0.00011322
9.45049e-05
8.20265e-05
7.33204e-05
6.68102e-05
6.19644e-05
5.80573e-05
5.51148e-05
5.25517e-05
5.07189e-05
4.89219e-05
4.7864e-05
4.63902e-05
4.53993e-05
0.000862987
0.000609451
0.000451562
0.000350913
0.000289257
0.000246537
0.000216669
0.000194327
0.000177768
0.000164318
0.000154065
0.000145094
0.00013823
0.00013177
0.000126895
0.000122113
0.00011815
0.000113721
0.000877432
0.000776396
0.000690786
0.000592012
0.000517269
0.000458143
0.000413463
0.000377268
0.000349681
0.000326002
0.00030793
0.000291344
0.000278974
0.000266649
0.000257961
0.000248295
0.000242391
0.00023338
0.00085841
0.000835289
0.000807254
0.000753143
0.000699352
0.000648278
0.000604826
0.000565893
0.000534219
0.000505396
0.000482526
0.000460772
0.000444138
0.000427151
0.000415056
0.000401191
0.000392846
0.000380081
0.000854258
0.000849542
0.000840708
0.00082304
0.00079859
0.00076848
0.000739179
0.000709568
0.00068337
0.000657749
0.000636235
0.00061484
0.000597753
0.000579852
0.000566621
0.000551253
0.000541697
0.000526799
0.000852389
0.000851592
0.000849791
0.000844527
0.000835947
0.000824523
0.000810178
0.000793471
0.000777251
0.000760029
0.00074458
0.000728318
0.000714604
0.000699812
0.000688245
0.000674786
0.000665761
0.000652262
0.000851903
0.00085148
0.000851079
0.000849882
0.000847545
0.000843618
0.000838594
0.000831274
0.000823651
0.000814998
0.00080631
0.000796567
0.000787819
0.000778097
0.000769893
0.000760512
0.000753368
0.000743572
0.000851815
0.000851374
0.000851074
0.000850609
0.000850035
0.000848809
0.000847332
0.000844859
0.000842
0.000838308
0.000834509
0.000829871
0.000825435
0.000820288
0.000815596
0.000810289
0.000805642
0.000799796
0.000851799
0.000851357
0.000851021
0.000850624
0.000850325
0.000849824
0.000849339
0.000848519
0.000847606
0.000846263
0.000844876
0.000843013
0.000841207
0.000838891
0.00083683
0.000834118
0.000832064
0.00082887
0.000851792
0.000851359
0.000851001
0.000850611
0.000850306
0.000849938
0.000849632
0.000849211
0.000848816
0.000848235
0.000847678
0.000846879
0.000846142
0.000845098
0.00084422
0.000842925
0.000841987
0.000840439
0.000851787
0.000851362
0.000850989
0.000850608
0.00085028
0.000849936
0.000849645
0.00084932
0.000849042
0.000848699
0.0008484
0.000848003
0.000847662
0.000847183
0.000846791
0.000846217
0.000845778
0.000845109
0.000851783
0.000851364
0.00085098
0.000850605
0.000850263
0.000849926
0.000849622
0.000849316
0.000849044
0.00084876
0.000848508
0.000848234
0.000847992
0.000847717
0.000847475
0.00084719
0.000846941
0.000846641
0.000851781
0.000851364
0.000850974
0.0008506
0.000850251
0.000849916
0.000849603
0.000849301
0.000849019
0.000848745
0.000848489
0.000848239
0.000848006
0.000847775
0.000847559
0.000847343
0.000847139
0.000846936
0.00085178
0.000851363
0.00085097
0.000850596
0.000850243
0.000849907
0.000849589
0.000849286
0.000848999
0.000848724
0.000848464
0.000848214
0.000847977
0.00084775
0.000847533
0.000847324
0.000847125
0.000846934
0.000851779
0.000851362
0.000850967
0.000850592
0.000850236
0.000849899
0.000849579
0.000849274
0.000848984
0.000848707
0.000848444
0.000848192
0.000847952
0.000847723
0.000847503
0.000847293
0.000847092
0.000846899
0.000851779
0.000851362
0.000850966
0.000850589
0.000850233
0.000849894
0.000849572
0.000849265
0.000848974
0.000848696
0.00084843
0.000848177
0.000847935
0.000847703
0.000847482
0.000847269
0.000847066
0.000846872
0.000851779
0.000851362
0.000850965
0.000850589
0.000850232
0.000849892
0.00084957
0.000849262
0.00084897
0.000848691
0.000848424
0.00084817
0.000847926
0.000847694
0.000847471
0.000847258
0.000847053
0.000846858
0.000851779
0.000851362
0.000850966
0.000850591
0.000850234
0.000849895
0.000849573
0.000849266
0.000848973
0.000848695
0.000848428
0.000848174
0.000847929
0.000847696
0.000847472
0.000847258
0.000847051
0.000846853
0.000851779
0.000851364
0.000850968
0.000850595
0.000850238
0.000849902
0.000849578
0.000849274
0.000848979
0.0008487
0.000848426
0.000848168
0.00084791
0.000847666
0.000847419
0.000847186
0.000846945
0.000846721
0.000851778
0.000851367
0.000850969
0.000850603
0.000850243
0.00084991
0.000849573
0.000849254
0.000848916
0.000848587
0.000848222
0.000847864
0.000847455
0.000847058
0.000846593
0.000846157
0.000845633
0.000845166
0.000851779
0.000851381
0.000850972
0.000850624
0.000850209
0.000849789
0.000849233
0.000848615
0.000847803
0.000846894
0.000845767
0.000844557
0.000843121
0.000841659
0.000839954
0.000838321
0.000836376
0.000834687
0.000851855
0.000851467
0.000850932
0.000850394
0.000849126
0.000847457
0.000844946
0.000841938
0.00083807
0.000833843
0.000828955
0.000823921
0.000818439
0.000812985
0.000807301
0.000801566
0.000795884
0.000790759
0.000852785
0.00085138
0.000849189
0.000845094
0.000836883
0.000827815
0.000815745
0.000802817
0.000788366
0.000774357
0.000759647
0.000746057
0.000732092
0.000719651
0.000706781
0.000695793
0.000684033
0.000674633
0.00085821
0.000842299
0.00082896
0.000803014
0.000769254
0.00073547
0.000700795
0.000669693
0.000639482
0.000613572
0.000588586
0.000567712
0.000547276
0.000530612
0.000513811
0.000500547
0.000486496
0.000475986
0.000864336
0.000785613
0.000712706
0.000628303
0.000558274
0.000503082
0.000455736
0.000418853
0.000386605
0.00036157
0.000338736
0.000321196
0.000304378
0.000291729
0.000278864
0.000269495
0.00025931
0.000252238
0.000775951
0.000540066
0.000397937
0.000312962
0.000258151
0.000219629
0.000190497
0.000169556
0.000152541
0.000139979
0.000129081
0.000121001
0.000113509
0.000108056
0.000102612
9.87881e-05
9.4662e-05
9.18873e-05
0.000323579
0.000164842
0.000111415
8.60749e-05
7.08248e-05
6.13533e-05
5.50169e-05
5.08843e-05
4.7952e-05
4.60087e-05
4.45899e-05
4.36876e-05
4.30394e-05
4.26952e-05
4.24563e-05
4.24406e-05
4.24382e-05
4.26254e-05
3.26574e-05
3.90518e-05
4.3892e-05
4.69714e-05
4.93654e-05
5.11697e-05
5.25341e-05
5.3459e-05
5.41136e-05
5.44625e-05
5.46897e-05
5.4696e-05
5.46527e-05
5.45481e-05
5.43749e-05
5.41671e-05
5.39417e-05
5.37047e-05
5.00097e-06
1.38546e-05
1.6441e-05
1.83007e-05
1.96272e-05
2.06394e-05
2.15241e-05
2.22955e-05
2.30086e-05
2.37197e-05
2.44881e-05
2.53684e-05
2.63564e-05
2.74031e-05
2.84775e-05
2.95666e-05
3.06677e-05
3.17795e-05
3.29024e-05
3.40352e-05
3.51779e-05
3.63299e-05
3.74925e-05
3.86684e-05
3.98433e-05
4.10124e-05
4.21751e-05
4.33312e-05
4.44824e-05
4.56334e-05
4.67935e-05
4.79645e-05
4.91222e-05
5.02714e-05
5.14117e-05
5.25443e-05
5.367e-05
5.47909e-05
5.5908e-05
5.70222e-05
5.81342e-05
5.92456e-05
6.03564e-05
6.14679e-05
6.25789e-05
6.36883e-05
6.47945e-05
6.59007e-05
6.70056e-05
6.81104e-05
6.92147e-05
7.03193e-05
7.14235e-05
7.25283e-05
7.36327e-05
7.47378e-05
7.58423e-05
7.69472e-05
7.80511e-05
7.91552e-05
8.02578e-05
8.136e-05
8.246e-05
8.35592e-05
8.46555e-05
8.57503e-05
8.68413e-05
8.79301e-05
8.90143e-05
9.00956e-05
9.11716e-05
9.2244e-05
9.33102e-05
9.43722e-05
9.54272e-05
9.64773e-05
9.75195e-05
9.85562e-05
9.95845e-05
0.000100607
0.00010162
0.000102627
0.000103624
0.000104614
0.000105594
0.000106566
0.000107527
0.000108481
0.000109424
0.000110358
0.000111281
0.000112193
0.000113091
0.000113975
0.000114843
0.000115692
0.000116517
0.000117314
0.000118075
0.000118865
0.000119623
0.000120367
0.000121092
0.000121798
0.000122484
0.000123148
0.000123788
0.000124404
0.000124993
0.000125554
0.000126083
0.000126579
0.000127037
0.000127457
0.000127833
0.000128164
0.000128449
0.000128699
0.00012899
0.000128969
0.000129134
0.000129049
0.000128916
0.000128794
0.00012854
0.000128211
0.000127797
0.000127337
0.00012672
0.000126024
0.000125236
0.000124361
0.000123403
0.000122366
0.000121257
0.00012008
0.000118844
0.000117552
0.000116211
0.000114826
0.000113353
0.000111752
0.00011066
0.000109665
0.000108664
0.000107645
0.000106611
0.000105568
0.000104521
0.000103475
0.000102433
0.000101396
0.000100368
9.93494e-05
9.83422e-05
9.73478e-05
9.63674e-05
9.54016e-05
9.44511e-05
9.35166e-05
9.26006e-05
9.16971e-05
9.08103e-05
8.99464e-05
8.91092e-05
8.82949e-05
8.75025e-05
8.67315e-05
8.59829e-05
8.52572e-05
8.45534e-05
8.38707e-05
8.32075e-05
8.25612e-05
8.19277e-05
8.13004e-05
8.06608e-05
7.99929e-05
7.93011e-05
7.7075e-05
7.97148e-06
4.3863e-05
8.98892e-05
0.000123289
0.000144483
0.00015706
0.00016422
0.000169056
0.000173158
0.000177178
0.00018126
0.000185338
0.000189434
0.000193662
0.000198077
0.000202707
0.000207573
0.000212695
0.00021809
0.000223768
0.000229736
0.000235996
0.000242551
0.000249378
0.000256442
0.000263692
0.000271111
0.000278651
0.000286266
0.000293917
0.000301589
0.000309308
0.000317038
0.000324766
0.000332473
0.000340135
0.000347725
0.000355251
0.000362797
0.000370358
0.000377943
0.000385565
0.000393247
0.000401012
0.000408898
0.000416903
0.000424941
0.000433017
0.000441138
0.000449307
0.00045753
0.000465812
0.000474157
0.000482568
0.000491051
0.000499606
0.000508238
0.000516947
0.000525735
0.000534602
0.000543549
0.000552573
0.000561677
0.000570857
0.000580114
0.000589443
0.000598844
0.000608313
0.000617849
0.000627446
0.000637106
0.000646824
0.0006566
0.000666431
0.000676319
0.00068626
0.000696257
0.000706306
0.000716413
0.000726577
0.000736804
0.000747096
0.000757462
0.000767906
0.00077844
0.000789071
0.000799812
0.000810677
0.000821682
0.000832842
0.000844177
0.000855693
0.000867395
0.000879276
0.000891315
0.000903456
0.000915592
0.000927546
0.000939059
0.000949832
0.0009608
0.000971862
0.00098303
0.0009943
0.00100566
0.0010171
0.0010286
0.00104014
0.0010517
0.00106324
0.00107472
0.00108611
0.00109735
0.00110839
0.00111917
0.00112964
0.00113976
0.0011496
0.00115938
0.00116804
0.00117626
0.0011833
0.00118833
0.00119438
0.00119888
0.00120234
0.00120476
0.00120629
0.00120675
0.00120616
0.00120452
0.00120188
0.00119825
0.0011937
0.00118827
0.00118204
0.00117505
0.00116737
0.00115905
0.00115008
0.00114015
0.00112773
0.00111354
0.00109859
0.00108335
0.00106803
0.00105276
0.00103763
0.00102268
0.00100796
0.000993519
0.000979365
0.000965521
0.000952001
0.000938814
0.00092597
0.000913476
0.000901336
0.000889551
0.000878121
0.000867047
0.000856236
0.000845854
0.000835843
0.000826179
0.000816836
0.000807797
0.000799051
0.000790586
0.00078239
0.000774444
0.000766724
0.0007592
0.000751836
0.000744574
0.000737327
0.000729867
0.000722034
0.000707525
0.00067046
9.86447e-06
7.00686e-05
0.000143425
0.000202228
0.000245825
0.000277213
0.000299642
0.000316108
0.000328927
0.000339697
0.000349429
0.000358739
0.00036802
0.000377525
0.000387402
0.000397731
0.000408549
0.000419871
0.000431694
0.000443995
0.00045672
0.000469872
0.000483556
0.000497835
0.000512826
0.000528199
0.000543812
0.000559585
0.000575461
0.000591398
0.000607363
0.000623338
0.000639301
0.000655239
0.000671144
0.000687008
0.000702837
0.000718647
0.000734463
0.000750292
0.000766078
0.000781883
0.00079773
0.000813638
0.000829619
0.000845677
0.00086181
0.000878025
0.000894335
0.000910748
0.000927276
0.000943927
0.000960711
0.000977634
0.000994704
0.00101193
0.0010293
0.00104684
0.00106454
0.0010824
0.00110042
0.00111859
0.00113692
0.00115541
0.00117404
0.00119281
0.00121172
0.00123077
0.00124993
0.00126922
0.00128862
0.00130812
0.00132772
0.00134742
0.00136721
0.00138708
0.00140703
0.00142706
0.00144716
0.00146734
0.0014876
0.00150793
0.00152835
0.00154886
0.00156946
0.00159017
0.00161099
0.00163194
0.00165304
0.00167428
0.00169569
0.00171727
0.00173899
0.00176086
0.00178282
0.00180483
0.0018268
0.00184865
0.00187026
0.0018917
0.00191333
0.00193512
0.00195708
0.00197919
0.00200143
0.00202378
0.00204621
0.00206868
0.00209113
0.00211352
0.00213577
0.00215779
0.0021795
0.0022008
0.00222157
0.0022417
0.00226108
0.0022796
0.00229758
0.00231397
0.00232973
0.00234269
0.00235275
0.00236343
0.00237182
0.00237817
0.00238251
0.00238489
0.00238523
0.00238351
0.00237977
0.00237407
0.00236648
0.00235709
0.00234601
0.00233336
0.00231927
0.00230384
0.00228719
0.0022693
0.00224993
0.00222818
0.00220429
0.00217911
0.00215321
0.00212696
0.00210058
0.00207421
0.00204799
0.002022
0.00199632
0.00197101
0.00194611
0.00192168
0.00189773
0.0018743
0.00185141
0.00182907
0.00180731
0.00178611
0.0017655
0.00174542
0.00172598
0.00170715
0.00168888
0.00167116
0.00165395
0.00163725
0.00162103
0.00160528
0.00158996
0.00157503
0.00156046
0.00154614
0.001532
0.00151784
0.00150331
0.00148788
0.00146595
0.00141425
1.1167e-05
9.14822e-05
0.000186715
0.00026432
0.000324309
0.000369535
0.000403709
0.000430047
0.000451149
0.000469001
0.000485037
0.000500245
0.000515277
0.000530543
0.000546286
0.000562642
0.000579677
0.000597419
0.000615878
0.000635055
0.000654965
0.000675559
0.000696691
0.000718227
0.000739976
0.000761964
0.000784181
0.000806577
0.000829099
0.000851697
0.000874325
0.000896938
0.000919495
0.000942026
0.000964532
0.000987013
0.00100948
0.00103195
0.00105445
0.00107704
0.00109965
0.00112229
0.00114495
0.00116767
0.00119046
0.00121333
0.00123629
0.00125936
0.00128256
0.0013059
0.0013294
0.00135306
0.0013769
0.00140092
0.00142515
0.00144958
0.00147422
0.00149908
0.00152417
0.00154947
0.001575
0.00160074
0.0016267
0.00165287
0.00167923
0.0017058
0.00173255
0.00175948
0.00178659
0.00181385
0.00184126
0.00186882
0.00189651
0.00192431
0.00195224
0.00198026
0.00200838
0.00203658
0.00206487
0.00209323
0.00212166
0.00215016
0.00217873
0.00220737
0.00223608
0.00226486
0.00229372
0.00232266
0.00235168
0.0023808
0.00241
0.00243929
0.00246864
0.00249805
0.00252747
0.00255688
0.00258622
0.00261545
0.00264458
0.00267371
0.00270299
0.00273241
0.00276197
0.00279165
0.00282144
0.00285131
0.00288123
0.00291114
0.00294101
0.00297075
0.0030003
0.00302955
0.0030584
0.00308673
0.00311441
0.00314129
0.00316723
0.00319208
0.00321577
0.00323797
0.00325937
0.0032773
0.00329189
0.00330635
0.0033183
0.00332764
0.00333435
0.00333839
0.00333972
0.00333833
0.00333424
0.00332752
0.00331825
0.00330655
0.00329254
0.00327637
0.00325819
0.00323816
0.00321639
0.00319294
0.00316767
0.0031402
0.00311066
0.0030796
0.00304753
0.00301481
0.0029817
0.0029484
0.00291507
0.00288185
0.00284884
0.00281613
0.0027838
0.00275191
0.00272051
0.00268966
0.00265939
0.00262972
0.0026007
0.00257232
0.00254462
0.00251757
0.00249124
0.00246561
0.00244066
0.00241639
0.00239276
0.00236976
0.00234738
0.0023256
0.00230438
0.00228369
0.00226349
0.00224369
0.00222417
0.00220476
0.00218504
0.00216422
0.0021374
0.00208355
1.21163e-05
0.000109345
0.000223019
0.000316496
0.000390636
0.000448142
0.000492975
0.000528555
0.000557695
0.00058261
0.000604982
0.000626028
0.000646593
0.000667235
0.0006883
0.000709992
0.000732413
0.000755605
0.000779569
0.00080428
0.00082969
0.000855725
0.000882284
0.000909269
0.000936587
0.000964186
0.000992017
0.00102003
0.00104817
0.00107639
0.00110467
0.00113298
0.00116132
0.00118962
0.00121788
0.00124609
0.00127426
0.00130238
0.00133046
0.0013585
0.00138648
0.00141446
0.00144247
0.00147054
0.00149867
0.00152689
0.00155523
0.00158369
0.0016123
0.00164108
0.00167004
0.00169919
0.00172855
0.00175813
0.00178793
0.00181798
0.00184828
0.00187884
0.00190966
0.00194074
0.00197209
0.0020037
0.00203556
0.00206767
0.00210002
0.0021326
0.0021654
0.00219841
0.00223162
0.00226502
0.00229858
0.00233231
0.00236618
0.00240018
0.00243429
0.00246851
0.00250281
0.00253719
0.00257163
0.00260613
0.00264066
0.00267523
0.00270983
0.00274444
0.00277907
0.00281371
0.00284835
0.00288299
0.00291763
0.00295226
0.00298689
0.0030215
0.00305609
0.00309063
0.00312513
0.00315956
0.00319391
0.00322817
0.00326241
0.00329666
0.00333099
0.00336541
0.00339992
0.00343451
0.00346916
0.00350386
0.00353857
0.00357326
0.00360788
0.00364237
0.00367664
0.00371061
0.00374418
0.00377721
0.00380958
0.00384112
0.00387168
0.00390107
0.00392911
0.00395554
0.00398132
0.00400373
0.00402267
0.00404032
0.00405588
0.00406848
0.0040781
0.00408467
0.00408813
0.00408846
0.00408567
0.0040798
0.00407095
0.0040592
0.0040447
0.00402759
0.00400804
0.00398619
0.0039622
0.00393616
0.00390805
0.00387779
0.00384551
0.00381157
0.00377636
0.00374021
0.0037034
0.00366614
0.00362862
0.00359099
0.00355339
0.00351594
0.00347874
0.00344187
0.0034054
0.00336941
0.00333395
0.00329905
0.00326478
0.00323114
0.00319818
0.0031659
0.00313434
0.00310352
0.00307341
0.00304404
0.00301537
0.00298741
0.00296015
0.00293356
0.00290761
0.0028823
0.00285757
0.00283337
0.00280959
0.00278605
0.00276238
0.00273767
0.00270776
0.00265666
1.29442e-05
0.000123043
0.00025222
0.000360059
0.000446852
0.000515894
0.00057087
0.000615373
0.000652371
0.000684243
0.000712835
0.000739531
0.000765325
0.000790906
0.000816723
0.000843051
0.000870045
0.000897774
0.000926251
0.000955451
0.000985321
0.00101579
0.00104678
0.0010782
0.00110999
0.00114207
0.00117438
0.00120686
0.00123947
0.00127216
0.00130489
0.00133763
0.00137035
0.00140303
0.00143566
0.00146821
0.0015007
0.00153313
0.0015655
0.00159781
0.00163009
0.00166236
0.00169465
0.00172698
0.00175937
0.00179185
0.00182444
0.00185716
0.00189004
0.00192308
0.00195632
0.00198977
0.00202344
0.00205736
0.00209155
0.002126
0.00216072
0.00219572
0.002231
0.00226655
0.00230238
0.00233849
0.00237487
0.00241151
0.00244841
0.00248555
0.00252292
0.0025605
0.0025983
0.00263628
0.00267443
0.00271274
0.00275118
0.00278975
0.00282841
0.00286716
0.00290597
0.00294482
0.00298369
0.00302258
0.00306145
0.0031003
0.00313911
0.00317787
0.00321655
0.00325516
0.00329368
0.00333209
0.00337039
0.00340858
0.00344664
0.00348457
0.00352237
0.00356003
0.00359755
0.00363494
0.00367223
0.00370944
0.00374657
0.00378367
0.00382077
0.00385787
0.00389499
0.00393213
0.00396928
0.00400645
0.00404361
0.00408074
0.00411782
0.00415478
0.00419158
0.00422814
0.00426436
0.00430014
0.00433535
0.00436985
0.00440346
0.00443601
0.00446726
0.00449694
0.00452601
0.00455239
0.00457559
0.00459661
0.00461582
0.0046321
0.00464531
0.00465533
0.00466206
0.00466546
0.00466551
0.00466224
0.00465569
0.00464594
0.00463312
0.00461735
0.00459878
0.00457757
0.00455386
0.00452778
0.0044994
0.00446878
0.00443605
0.0044015
0.00436543
0.00432814
0.00428989
0.0042509
0.00421137
0.00417149
0.00413141
0.00409126
0.00405116
0.00401123
0.00397154
0.0039322
0.00389326
0.00385479
0.00381684
0.00377947
0.0037427
0.00370657
0.00367112
0.00363636
0.00360231
0.00356899
0.00353638
0.00350451
0.00347335
0.00344291
0.00341318
0.00338415
0.00335578
0.00332805
0.00330087
0.0032741
0.00324742
0.00321994
0.00318821
0.00314098
1.39237e-05
0.000131072
0.000273457
0.000394794
0.000493574
0.000573623
0.000638367
0.000691526
0.000736189
0.000774857
0.000809499
0.000841624
0.000872348
0.000902469
0.000932535
0.000962899
0.000993775
0.00102528
0.00105744
0.00109027
0.00112373
0.00115775
0.00119227
0.00122722
0.00126252
0.00129811
0.00133392
0.0013699
0.00140599
0.00144214
0.00147832
0.00151449
0.00155062
0.00158669
0.00162269
0.0016586
0.00169443
0.00173018
0.00176586
0.00180147
0.00183704
0.00187258
0.00190813
0.00194371
0.00197933
0.00201503
0.00205083
0.00208674
0.00212281
0.00215904
0.00219546
0.00223209
0.00226895
0.00230605
0.00234342
0.00238104
0.00241894
0.00245712
0.00249559
0.00253434
0.00257337
0.00261269
0.00265228
0.00269214
0.00273226
0.00277263
0.00281323
0.00285405
0.00289508
0.00293629
0.00297767
0.00301919
0.00306083
0.00310258
0.00314441
0.0031863
0.00322821
0.00327014
0.00331204
0.00335391
0.00339571
0.00343743
0.00347904
0.00352052
0.00356185
0.00360301
0.00364398
0.00368476
0.00372531
0.00376565
0.00380575
0.00384561
0.00388522
0.0039246
0.00396374
0.00400265
0.00404137
0.00407991
0.00411828
0.00415653
0.00419467
0.00423272
0.00427072
0.00430868
0.0043466
0.00438451
0.00442241
0.0044603
0.00449817
0.00453599
0.00457375
0.00461138
0.00464882
0.004686
0.0047228
0.0047591
0.00479476
0.00482959
0.00486341
0.00489596
0.00492767
0.00495761
0.00498501
0.00500987
0.00503307
0.00505355
0.00507107
0.00508544
0.0050965
0.00510417
0.00510841
0.00510918
0.00510651
0.00510045
0.00509107
0.00507847
0.00506278
0.00504414
0.00502268
0.00499855
0.00497185
0.00494272
0.0049113
0.00487783
0.00484258
0.00480579
0.00476774
0.00472863
0.0046887
0.00464812
0.00460706
0.00456569
0.00452413
0.00448252
0.00444097
0.00439956
0.0043584
0.00431756
0.00427711
0.00423711
0.0041976
0.00415864
0.00412027
0.00408253
0.00404543
0.00400901
0.00397328
0.00393826
0.00390396
0.00387038
0.00383754
0.00380543
0.00377405
0.0037434
0.00371342
0.00368403
0.00365495
0.00362541
0.0035926
0.00354861
1.47779e-05
0.00013616
0.000288916
0.000421976
0.000531644
0.000621932
0.000695913
0.000757344
0.000809378
0.000854596
0.000895053
0.000932352
0.000967704
0.001002
0.00103588
0.00106977
0.00110395
0.00113858
0.00117375
0.00120948
0.00124576
0.00128255
0.0013198
0.00135745
0.00139543
0.00143368
0.00147214
0.00151074
0.00154943
0.00158817
0.00162692
0.00166563
0.00170429
0.00174286
0.00178134
0.00181972
0.001858
0.00189617
0.00193425
0.00197225
0.00201019
0.00204808
0.00208596
0.00212384
0.00216176
0.00219972
0.00223777
0.00227593
0.00231421
0.00235266
0.00239127
0.00243009
0.00246912
0.00250838
0.0025479
0.00258767
0.00262772
0.00266804
0.00270864
0.00274952
0.00279069
0.00283215
0.00287387
0.00291587
0.00295813
0.00300063
0.00304337
0.00308633
0.00312949
0.00317283
0.00321633
0.00325997
0.00330371
0.00334755
0.00339144
0.00343537
0.0034793
0.0035232
0.00356705
0.00361081
0.00365446
0.00369796
0.00374129
0.00378442
0.00382732
0.00386996
0.00391233
0.0039544
0.00399615
0.00403757
0.00407864
0.00411937
0.00415973
0.00419974
0.0042394
0.00427872
0.00431772
0.00435643
0.00439486
0.00443305
0.00447103
0.00450883
0.00454649
0.00458404
0.00462152
0.00465896
0.00469639
0.00473385
0.00477135
0.00480891
0.00484652
0.00488419
0.00492187
0.00495952
0.00499707
0.00503443
0.00507149
0.0051081
0.00514408
0.00517923
0.00521357
0.0052469
0.00527826
0.00530765
0.00533524
0.00536054
0.00538312
0.00540269
0.00541905
0.00543208
0.00544168
0.00544777
0.00545034
0.00544937
0.0054449
0.00543699
0.00542573
0.00541122
0.00539359
0.00537297
0.0053495
0.00532331
0.00529458
0.00526351
0.00523035
0.00519533
0.0051587
0.00512069
0.00508152
0.00504138
0.00500048
0.00495897
0.00491701
0.00487474
0.0048323
0.00478979
0.00474733
0.004705
0.00466289
0.00462107
0.00457961
0.00453857
0.004498
0.00445795
0.00441846
0.00437957
0.00434131
0.00430371
0.00426679
0.00423058
0.0041951
0.00416038
0.00412643
0.00409326
0.00406088
0.00402925
0.00399815
0.00396694
0.00393335
0.00389202
1.54854e-05
0.000139255
0.000299833
0.000442641
0.000561865
0.000661375
0.000743865
0.000813021
0.000871998
0.000923408
0.00096936
0.00101152
0.00105117
0.00108928
0.00112656
0.00116352
0.00120048
0.00123768
0.00127524
0.00131323
0.00135166
0.00139052
0.00142978
0.00146938
0.00150928
0.00154941
0.00158972
0.00163015
0.00167064
0.00171116
0.00175165
0.00179208
0.00183243
0.00187268
0.0019128
0.0019528
0.00199267
0.00203241
0.00207203
0.00211154
0.00215097
0.00219033
0.00222965
0.00226895
0.00230825
0.00234759
0.00238699
0.00242647
0.00246607
0.0025058
0.00254569
0.00258576
0.00262604
0.00266654
0.00270728
0.00274827
0.00278952
0.00283104
0.00287284
0.00291493
0.0029573
0.00299995
0.00304288
0.00308609
0.00312955
0.00317328
0.00321724
0.00326142
0.00330581
0.00335038
0.00339511
0.00343998
0.00348496
0.00353002
0.00357513
0.00362026
0.00366538
0.00371044
0.00375543
0.00380029
0.00384501
0.00388953
0.00393382
0.00397785
0.00402158
0.00406499
0.00410803
0.00415069
0.00419294
0.00423474
0.0042761
0.00431699
0.00435741
0.00439734
0.00443681
0.0044758
0.00451435
0.00455248
0.0045902
0.00462756
0.0046646
0.00470135
0.00473787
0.00477421
0.00481043
0.00484659
0.00488275
0.00491896
0.0049553
0.00499181
0.00502853
0.00506549
0.00510272
0.0051402
0.00517792
0.00521583
0.00525385
0.00529187
0.00532976
0.00536735
0.00540448
0.00544112
0.00547651
0.0055106
0.00554326
0.00557395
0.00560231
0.00562787
0.00565041
0.00566976
0.00568577
0.00569831
0.00570728
0.00571263
0.00571434
0.0057124
0.00570687
0.00569782
0.00568532
0.00566951
0.00565051
0.00562846
0.00560355
0.00557596
0.00554593
0.00551367
0.00547944
0.00544347
0.00540597
0.00536718
0.00532728
0.00528646
0.00524491
0.00520276
0.00516018
0.00511729
0.00507421
0.00503106
0.00498792
0.0049449
0.00490207
0.00485949
0.00481725
0.0047754
0.004734
0.00469309
0.00465272
0.00461294
0.00457379
0.0045353
0.00449753
0.0044605
0.00442426
0.00438886
0.00435434
0.00432067
0.00428776
0.00425504
0.00422074
0.00418142
1.60587e-05
0.000140789
0.000306926
0.000457505
0.000584981
0.000692382
0.000782551
0.000858745
0.000924099
0.000981221
0.00103224
0.00107886
0.00112242
0.00116395
0.00120421
0.00124377
0.00128303
0.00132226
0.00136165
0.00140129
0.00144124
0.0014815
0.00152207
0.00156292
0.00160401
0.00164528
0.0016867
0.0017282
0.00176973
0.00181124
0.00185269
0.00189404
0.00193528
0.00197637
0.00201731
0.00205809
0.0020987
0.00213916
0.00217946
0.00221962
0.00225967
0.00229962
0.00233949
0.00237932
0.00241913
0.00245895
0.00249881
0.00253873
0.00257875
0.00261889
0.00265917
0.00269963
0.00274028
0.00278114
0.00282223
0.00286357
0.00290518
0.00294705
0.00298921
0.00303166
0.0030744
0.00311744
0.00316077
0.00320439
0.00324828
0.00329245
0.00333688
0.00338155
0.00342645
0.00347154
0.00351682
0.00356225
0.00360781
0.00365346
0.00369917
0.00374491
0.00379063
0.00383631
0.00388189
0.00392734
0.00397261
0.00401767
0.00406246
0.00410695
0.00415109
0.00419483
0.00423816
0.00428101
0.00432336
0.00436519
0.00440646
0.00444715
0.00448725
0.00452675
0.00456564
0.00460394
0.00464164
0.00467879
0.00471539
0.0047515
0.00478716
0.00482241
0.00485733
0.00489198
0.00492645
0.00496082
0.00499518
0.00502963
0.00506426
0.00509917
0.00513446
0.0051702
0.00520646
0.0052433
0.00528073
0.00531877
0.00535739
0.00539653
0.0054361
0.00547596
0.00551595
0.00555589
0.00559545
0.00563435
0.00567246
0.00570914
0.00574384
0.00577619
0.00580568
0.00583219
0.00585552
0.00587548
0.00589189
0.00590463
0.00591361
0.00591878
0.00592013
0.00591765
0.00591143
0.00590153
0.00588808
0.00587121
0.00585109
0.00582791
0.00580189
0.00577325
0.00574224
0.00570908
0.00567403
0.0056373
0.00559911
0.00555966
0.00551915
0.00547775
0.00543562
0.00539292
0.00534977
0.00530632
0.00526266
0.0052189
0.00517514
0.00513147
0.00508797
0.0050447
0.00500174
0.00495916
0.00491701
0.00487535
0.00483423
0.00479373
0.00475389
0.00471477
0.00467644
0.00463898
0.00460244
0.00456688
0.00453221
0.00449802
0.00446289
0.00442467
1.65116e-05
0.00014106
0.000310776
0.000467269
0.000601537
0.000715606
0.000812362
0.000894732
0.000965743
0.00102796
0.0010835
0.00113408
0.00118106
0.00122552
0.00126827
0.00130993
0.00135096
0.00139168
0.00143231
0.001473
0.00151382
0.00155483
0.00159602
0.0016374
0.00167895
0.00172063
0.00176241
0.00180424
0.00184604
0.00188777
0.00192939
0.00197086
0.00201216
0.00205327
0.00209418
0.00213488
0.00217537
0.00221566
0.00225575
0.00229567
0.00233543
0.00237506
0.00241458
0.00245403
0.00249345
0.00253285
0.00257227
0.00261175
0.00265131
0.00269099
0.0027308
0.00277079
0.00281097
0.00285136
0.002892
0.00293289
0.00297407
0.00301553
0.00305729
0.00309937
0.00314177
0.00318449
0.00322754
0.00327091
0.00331461
0.00335861
0.00340292
0.00344751
0.00349237
0.00353748
0.00358281
0.00362834
0.00367403
0.00371986
0.00376578
0.00381176
0.00385776
0.00390372
0.00394962
0.00399539
0.00404098
0.00408635
0.00413145
0.00417621
0.0042206
0.00426455
0.00430803
0.00435097
0.00439334
0.00443509
0.00447619
0.00451661
0.00455632
0.0045953
0.00463355
0.00467106
0.00470783
0.00474389
0.00477926
0.00481399
0.00484811
0.0048817
0.00491483
0.00494758
0.00498005
0.00501236
0.00504463
0.00507698
0.00510956
0.0051425
0.00517596
0.00521007
0.00524496
0.00528072
0.00531746
0.00535524
0.00539411
0.00543406
0.00547503
0.00551694
0.00555962
0.00560289
0.00564663
0.00569042
0.00573424
0.00577717
0.00581882
0.00585853
0.0058957
0.00593006
0.0059615
0.00598971
0.00601446
0.00603554
0.00605277
0.00606605
0.00607528
0.00608041
0.00608146
0.00607847
0.00607153
0.00606076
0.00604632
0.00602839
0.00600718
0.00598292
0.00595585
0.00592622
0.00589427
0.00586024
0.00582437
0.00578688
0.00574797
0.00570784
0.00566668
0.00562464
0.00558189
0.00553857
0.0054948
0.00545071
0.00540641
0.00536199
0.00531756
0.00527319
0.00522897
0.00518499
0.00514131
0.00509801
0.00505515
0.00501282
0.00497109
0.00493005
0.00488977
0.00485035
0.00481189
0.00477446
0.00473806
0.00470236
0.00466623
0.0046284
1.68557e-05
0.000140295
0.000311827
0.000472442
0.000611934
0.00073138
0.000833568
0.000921124
0.000996931
0.00106347
0.00112283
0.00117672
0.00122652
0.00127332
0.00131796
0.00136111
0.00140324
0.00144481
0.00148606
0.00152714
0.00156816
0.00160919
0.00165026
0.0016914
0.00173261
0.00177388
0.00181524
0.00185669
0.00189802
0.00193917
0.00198012
0.00202087
0.00206137
0.00210163
0.00214161
0.00218133
0.00222078
0.00225997
0.00229892
0.00233763
0.00237614
0.00241449
0.00245271
0.00249084
0.00252891
0.00256697
0.00260505
0.00264318
0.0026814
0.00271975
0.00275826
0.00279695
0.00283587