/*--------------------------------*- C++ -*----------------------------------*\
| =========                 |                                                 |
| \\      /  F ield         | OpenFOAM: The Open Source CFD Toolbox           |
|  \\    /   O peration     | Version:  2406                                  |
|   \\  /    A nd           | Website:  www.openfoam.com                      |
|    \\/     M anipulation  |                                                 |
\*---------------------------------------------------------------------------*/
FoamFile
{
    version     2.0;
    format      ascii;
    arch        "LSB;label=32;scalar=64";
    class       volScalarField;
    location    "150";
    object      p;
}
// * * * * * * * * * * * * * * * * * * * * * * * * * * * * * * * * * * * * * //

dimensions      [0 2 -2 0 0 0 0];

internalField   nonuniform List<scalar> 
12225
(
-1.42521
-3.58249
-4.67523
-4.98918
-5.16623
-5.3453
-5.49374
-5.60582
-5.69797
-5.78154
-5.8596
-5.93328
-6.00426
-6.07463
-6.14691
-6.22074
-6.31073
-6.36794
-4.55544
-5.34316
-5.5482
-5.46043
-5.43564
-5.50023
-5.58369
-5.65844
-5.72843
-5.79828
-5.8676
-5.93549
-6.00252
-6.06994
-6.13949
-6.21252
-6.294
-6.39917
-4.93545
-4.86945
-4.98905
-5.0763
-5.18492
-5.32772
-5.46289
-5.57377
-5.66828
-5.75452
-5.83497
-5.91052
-5.98274
-6.05343
-6.12465
-6.19767
-6.27729
-6.36209
-4.80813
-4.72074
-4.98011
-5.17243
-5.29518
-5.41673
-5.53069
-5.62549
-5.70713
-5.7829
-5.85512
-5.92424
-5.99127
-6.05748
-6.12426
-6.19232
-6.2628
-6.33022
-4.79969
-4.81429
-5.06143
-5.22664
-5.31982
-5.41858
-5.52117
-5.61203
-5.69257
-5.7682
-5.84072
-5.91029
-5.97756
-6.04353
-6.10909
-6.17443
-6.23907
-6.2991
-4.86072
-4.90582
-5.09247
-5.23266
-5.32308
-5.41949
-5.52038
-5.6112
-5.69195
-5.76733
-5.83922
-5.90792
-5.974
-6.03825
-6.10125
-6.16284
-6.22213
-6.27612
-4.92331
-4.9656
-5.10976
-5.24029
-5.33461
-5.42866
-5.52501
-5.61306
-5.69208
-5.76584
-5.83613
-5.90327
-5.96769
-6.02993
-6.09028
-6.14837
-6.20319
-6.2523
-4.97879
-5.01602
-5.13366
-5.25469
-5.34846
-5.43787
-5.52869
-5.6135
-5.6907
-5.76289
-5.83167
-5.89734
-5.96015
-6.02043
-6.07826
-6.1332
-6.18429
-6.22971
-5.03051
-5.0644
-5.16209
-5.27111
-5.36142
-5.44629
-5.53208
-5.61369
-5.68893
-5.75945
-5.82658
-5.89061
-5.95166
-6.00988
-6.06524
-6.11729
-6.16525
-6.20779
-5.07955
-5.1102
-5.1917
-5.28847
-5.37425
-5.45497
-5.53603
-5.61417
-5.68712
-5.75571
-5.82097
-5.88316
-5.9423
-5.99842
-6.0514
-6.10085
-6.14617
-6.18644
-5.1257
-5.15285
-5.22139
-5.30689
-5.38743
-5.46399
-5.54048
-5.61495
-5.68531
-5.75175
-5.81498
-5.87519
-5.93233
-5.98633
-6.03706
-6.08416
-6.12726
-6.16568
-5.16516
-5.18922
-5.24826
-5.32448
-5.39977
-5.4724
-5.54486
-5.6159
-5.68369
-5.74802
-5.80927
-5.86757
-5.92282
-5.97491
-6.02368
-6.06887
-6.11021
-6.14723
-5.2014
-5.22282
-5.27404
-5.34202
-5.41199
-5.4807
-5.5493
-5.61697
-5.68212
-5.74425
-5.80348
-5.85985
-5.91322
-5.96346
-6.01041
-6.05386
-6.09367
-6.12948
-5.23905
-5.25786
-5.3018
-5.36163
-5.42568
-5.4899
-5.55431
-5.61823
-5.68031
-5.73986
-5.79673
-5.85088
-5.90213
-5.95034
-5.99536
-6.03705
-6.07533
-6.10999
-5.2766
-5.29285
-5.3303
-5.38245
-5.44027
-5.49958
-5.55954
-5.61943
-5.67808
-5.73469
-5.78892
-5.84061
-5.88956
-5.93562
-5.97866
-6.01859
-6.05539
-6.08895
-5.31171
-5.32563
-5.35754
-5.40285
-5.45457
-5.50881
-5.56425
-5.62001
-5.67504
-5.72849
-5.7799
-5.82898
-5.87556
-5.91944
-5.96053
-5.99876
-6.03417
-6.06668
-5.341
-5.35298
-5.38047
-5.42012
-5.46642
-5.51592
-5.5671
-5.61894
-5.67044
-5.72076
-5.76936
-5.8159
-5.86016
-5.90198
-5.94125
-5.97793
-6.01206
-6.04365
-5.35947
-5.37006
-5.39446
-5.43009
-5.47233
-5.51811
-5.56585
-5.61449
-5.66304
-5.7107
-5.75689
-5.80124
-5.84352
-5.88358
-5.92131
-5.95669
-5.98976
-6.02055
-5.35938
-5.36933
-5.39238
-5.42628
-5.46675
-5.51078
-5.55676
-5.60369
-5.65061
-5.69673
-5.74147
-5.78446
-5.82549
-5.86443
-5.90119
-5.93578
-5.96821
-5.99856
-5.3348
-5.34526
-5.36949
-5.40515
-5.44744
-5.49288
-5.53984
-5.58752
-5.63502
-5.68156
-5.72651
-5.76962
-5.81064
-5.84952
-5.88617
-5.92064
-5.95293
-5.98319
-5.30027
-5.31162
-5.33833
-5.37784
-5.42398
-5.47238
-5.52174
-5.57155
-5.62088
-5.66877
-5.71476
-5.75864
-5.80032
-5.83967
-5.87674
-5.91151
-5.94412
-5.97464
-5.25777
-5.26983
-5.30031
-5.34645
-5.39825
-5.45021
-5.50258
-5.55552
-5.60761
-5.65761
-5.70518
-5.75029
-5.79289
-5.83295
-5.8705
-5.90564
-5.93849
-5.96916
-5.21067
-5.22204
-5.25702
-5.31322
-5.37268
-5.42867
-5.48432
-5.5406
-5.59551
-5.64774
-5.69717
-5.74388
-5.78779
-5.82889
-5.86725
-5.90308
-5.9365
-5.96779
-5.16151
-5.17054
-5.21185
-5.27943
-5.34568
-5.40663
-5.46791
-5.52879
-5.58646
-5.6404
-5.69119
-5.73898
-5.78366
-5.82526
-5.86398
-5.90004
-5.9336
-5.96478
-5.11029
-5.11154
-5.17442
-5.25615
-5.31975
-5.3804
-5.4479
-5.51549
-5.57778
-5.6351
-5.68873
-5.7388
-5.78516
-5.82792
-5.86744
-5.90403
-5.93804
-5.96991
-5.06397
-5.01546
-5.13128
-5.25283
-5.31543
-5.36809
-5.43272
-5.49938
-5.56102
-5.61838
-5.67274
-5.72385
-5.77129
-5.81514
-5.85569
-5.89329
-5.92815
-5.96039
-5.08103
-4.88298
-5.01621
-5.19434
-5.29964
-5.38026
-5.45971
-5.53196
-5.59492
-5.65196
-5.70503
-5.75412
-5.79912
-5.84038
-5.87834
-5.91345
-5.94621
-5.97765
-5.2219
-4.97441
-4.95092
-5.00609
-5.08897
-5.19742
-5.3086
-5.40615
-5.49074
-5.5669
-5.63627
-5.69873
-5.75456
-5.80458
-5.8496
-5.89026
-5.92739
-5.96225
-4.94988
-5.58056
-5.6992
-5.55918
-5.47138
-5.47856
-5.52055
-5.56522
-5.61053
-5.65841
-5.70704
-5.754
-5.79798
-5.83888
-5.87675
-5.91148
-5.94343
-5.97392
-1.89542
-3.66247
-4.67569
-4.9571
-5.08343
-5.22597
-5.35567
-5.4561
-5.53804
-5.61089
-5.67673
-5.73543
-5.78758
-5.83409
-5.87566
-5.91249
-5.94471
-5.97077
-6.82941
-6.82925
-6.83015
-6.83219
-6.83474
-6.83742
-6.84022
-6.84319
-6.84634
-6.84973
-6.85342
-6.8575
-6.86202
-6.86704
-6.87259
-6.87875
-6.88556
-6.8931
-6.9014
-6.91053
-6.9205
-6.93138
-6.94315
-6.95587
-6.96952
-6.98413
-6.99968
-7.01618
-7.03355
-7.05174
-7.07065
-7.09025
-7.11044
-7.13123
-7.15252
-7.17432
-7.19651
-7.21912
-7.24205
-7.2653
-7.28879
-7.31253
-7.33642
-7.36048
-7.3846
-7.40882
-7.43302
-7.45721
-7.48128
-7.50526
-7.529
-7.55253
-7.5757
-7.59851
-7.62081
-7.6426
-7.66372
-7.68415
-7.7037
-7.72237
-7.73995
-7.7564
-7.77152
-7.78527
-7.79742
-7.80792
-7.81653
-7.8232
-7.82765
-7.82981
-7.82941
-7.82633
-7.82031
-7.81124
-7.79882
-7.78296
-7.76335
-7.73984
-7.71209
-7.67989
-7.64286
-7.60077
-7.55323
-7.49995
-7.44048
-7.37449
-7.30152
-7.22125
-7.13329
-7.03735
-6.93311
-6.82018
-6.69807
-6.56624
-6.42405
-6.27079
-6.10569
-5.92799
-5.737
-5.53219
-5.31309
-5.07919
-4.82994
-4.56484
-4.28338
-3.98519
-3.66996
-3.33753
-2.98783
-2.62095
-2.23714
-1.83686
-1.42076
-0.989663
-0.544664
-0.0870605
0.381568
0.859424
1.34451
1.83472
2.32782
2.82146
3.3132
3.80061
4.28122
4.75278
5.2131
5.66026
6.09247
6.50826
6.90635
7.28578
7.64583
7.98607
8.30627
8.60649
8.88692
9.14797
9.39012
9.61406
9.82105
10.0124
10.1887
10.3502
10.4976
10.6317
10.7536
10.8641
10.964
11.0544
11.1361
11.2098
11.2763
11.3364
11.3907
11.4398
11.4843
11.5248
11.5618
11.5957
11.6269
11.6559
11.683
11.7086
11.7328
11.7561
11.7785
11.8004
11.822
11.8433
11.8647
11.8862
11.9081
11.9308
11.9546
11.9804
12.0101
12.0461
12.1024
12.1732
-6.8285
-6.82891
-6.83006
-6.83186
-6.83363
-6.83507
-6.83627
-6.83747
-6.83894
-6.84085
-6.84328
-6.84618
-6.84954
-6.85347
-6.85801
-6.8632
-6.86909
-6.87575
-6.88323
-6.8916
-6.90088
-6.91112
-6.92234
-6.93456
-6.94776
-6.96196
-6.97713
-6.99324
-7.01024
-7.02807
-7.04664
-7.06591
-7.08579
-7.10627
-7.12725
-7.14872
-7.1706
-7.19289
-7.21549
-7.23841
-7.26156
-7.28496
-7.30851
-7.33222
-7.35601
-7.37987
-7.40374
-7.42759
-7.45134
-7.47498
-7.49842
-7.52164
-7.54453
-7.56707
-7.58914
-7.6107
-7.63162
-7.65186
-7.67127
-7.6898
-7.70729
-7.72367
-7.73877
-7.7525
-7.76469
-7.77524
-7.78397
-7.79075
-7.79539
-7.79776
-7.79763
-7.79487
-7.78923
-7.78056
-7.76862
-7.75325
-7.73419
-7.71126
-7.6842
-7.65279
-7.6167
-7.57568
-7.52937
-7.47748
-7.41962
-7.35542
-7.28447
-7.20638
-7.12073
-7.0272
-6.9254
-6.81488
-6.69514
-6.56561
-6.4257
-6.27479
-6.11225
-5.93754
-5.75011
-5.54942
-5.33484
-5.1058
-4.86172
-4.60207
-4.32634
-4.03415
-3.72516
-3.39918
-3.05609
-2.69597
-2.31899
-1.92554
-1.51619
-1.09173
-0.65313
-0.201629
0.261314
0.73396
1.21443
1.70066
2.19049
2.68159
3.1716
3.65805
4.13856
4.61079
5.07259
5.52193
5.95703
6.3763
6.77843
7.16236
7.52732
7.87277
8.19844
8.5043
8.79047
9.05732
9.30542
9.53524
9.74718
9.94233
10.122
10.2869
10.4378
10.5754
10.7007
10.8146
10.9179
11.0115
11.0962
11.1728
11.2421
11.3048
11.3615
11.4128
11.4594
11.5019
11.5406
11.5761
11.6087
11.639
11.6672
11.6937
11.7188
11.7427
11.7657
11.788
11.8099
11.8314
11.8529
11.8746
11.8966
11.9193
11.9432
11.9692
11.9995
12.0354
12.0911
12.1533
-6.82134
-6.82326
-6.82598
-6.82831
-6.82968
-6.83022
-6.83033
-6.83036
-6.83059
-6.83122
-6.83238
-6.83416
-6.8366
-6.83975
-6.84363
-6.84827
-6.85371
-6.86
-6.86717
-6.87527
-6.88431
-6.89433
-6.90531
-6.91729
-6.93022
-6.9441
-6.95889
-6.97455
-6.99104
-7.00831
-7.0263
-7.04496
-7.06423
-7.08407
-7.10441
-7.12524
-7.14648
-7.16811
-7.19008
-7.21236
-7.23489
-7.25766
-7.28061
-7.30372
-7.32693
-7.35022
-7.37354
-7.39685
-7.42009
-7.44323
-7.46619
-7.48895
-7.51141
-7.53353
-7.55521
-7.5764
-7.59699
-7.61691
-7.63605
-7.65432
-7.6716
-7.68778
-7.70273
-7.71634
-7.72846
-7.73897
-7.74771
-7.75453
-7.75928
-7.76179
-7.76188
-7.75938
-7.7541
-7.74583
-7.73439
-7.71956
-7.70112
-7.67884
-7.6525
-7.62187
-7.58668
-7.54666
-7.50152
-7.45096
-7.39462
-7.33217
-7.26321
-7.18736
-7.10423
-7.01342
-6.91455
-6.80714
-6.69066
-6.56456
-6.42823
-6.28111
-6.12263
-5.95227
-5.76953
-5.57387
-5.36468
-5.14138
-4.90338
-4.65013
-4.38114
-4.09601
-3.79437
-3.47601
-3.14078
-2.78871
-2.41992
-2.03475
-1.63368
-1.21742
-0.786868
-0.343175
0.112306
0.577943
1.05197
1.53242
2.0172
2.50402
2.9906
3.47448
3.95337
4.42489
4.88691
5.33734
5.77438
6.19635
6.60191
6.98992
7.35953
7.71013
8.04139
8.35315
8.64553
8.9187
9.17306
9.40922
9.62798
9.83029
10.017
10.1888
10.3464
10.4905
10.6219
10.7416
10.8503
10.9491
11.0386
11.1197
11.1931
11.2596
11.3198
11.3743
11.4239
11.4689
11.51
11.5476
11.5821
11.614
11.6436
11.6713
11.6973
11.7221
11.7457
11.7686
11.7908
11.8126
11.8342
11.8559
11.8779
11.9006
11.9246
11.9506
11.9811
12.016
12.0699
12.1159
-6.80819
-6.81198
-6.81736
-6.82146
-6.8238
-6.82499
-6.82553
-6.82578
-6.82603
-6.82653
-6.82745
-6.82893
-6.83105
-6.83388
-6.83746
-6.84185
-6.84707
-6.85316
-6.86015
-6.86807
-6.87693
-6.88675
-6.89752
-6.90924
-6.92187
-6.93541
-6.9498
-6.96504
-6.98106
-6.99783
-7.01529
-7.03341
-7.05211
-7.07138
-7.09115
-7.11139
-7.13204
-7.15309
-7.17447
-7.19618
-7.21815
-7.24036
-7.26277
-7.28536
-7.30807
-7.33087
-7.35373
-7.37659
-7.39941
-7.42216
-7.44475
-7.46715
-7.48928
-7.5111
-7.53251
-7.55344
-7.57381
-7.59353
-7.6125
-7.63063
-7.6478
-7.66391
-7.67882
-7.69242
-7.70457
-7.71514
-7.72399
-7.73096
-7.73589
-7.73864
-7.73902
-7.73686
-7.73198
-7.72419
-7.7133
-7.69908
-7.68133
-7.65982
-7.63432
-7.60457
-7.57034
-7.53135
-7.48733
-7.43799
-7.38299
-7.32202
-7.2547
-7.18067
-7.09953
-7.0109
-6.91438
-6.8095
-6.69571
-6.57248
-6.43923
-6.29542
-6.14048
-5.97391
-5.79518
-5.60375
-5.39902
-5.18041
-4.94733
-4.69923
-4.43562
-4.15607
-3.86023
-3.54783
-3.21872
-2.87288
-2.51041
-2.13158
-1.73684
-1.32683
-0.9024
-0.464616
-0.0147834
0.445573
0.914754
1.39087
1.87189
2.35557
2.83961
3.32164
3.79936
4.27044
4.73269
5.18403
5.62259
6.04669
6.45493
6.84611
7.21936
7.57398
7.90965
8.22616
8.52355
8.80201
9.06195
9.30392
9.52867
9.73699
9.9296
10.1071
10.2701
10.4195
10.556
10.6805
10.7938
10.8969
10.9905
11.0754
11.1523
11.2221
11.2853
11.3426
11.3946
11.4419
11.485
11.5244
11.5605
11.5938
11.6246
11.6533
11.6802
11.7056
11.7297
11.7529
11.7754
11.7973
11.819
11.8405
11.8624
11.8849
11.9086
11.9342
11.9637
11.996
12.0447
12.0734
-6.79234
-6.79802
-6.8066
-6.81311
-6.81707
-6.81951
-6.82105
-6.82209
-6.82294
-6.82389
-6.82514
-6.82687
-6.82917
-6.83215
-6.83587
-6.84038
-6.84571
-6.8519
-6.85897
-6.86695
-6.87583
-6.88563
-6.89633
-6.90794
-6.92042
-6.93376
-6.94791
-6.96285
-6.97853
-6.99493
-7.01197
-7.02965
-7.0479
-7.0667
-7.08598
-7.10573
-7.1259
-7.14646
-7.16736
-7.18859
-7.2101
-7.23187
-7.25385
-7.27603
-7.29834
-7.32077
-7.34326
-7.36579
-7.3883
-7.41074
-7.43306
-7.45521
-7.47711
-7.49871
-7.51993
-7.5407
-7.56092
-7.58052
-7.59939
-7.61745
-7.63457
-7.65065
-7.66556
-7.6792
-7.69141
-7.70207
-7.71104
-7.71817
-7.7233
-7.72628
-7.72693
-7.7251
-7.72059
-7.71323
-7.70283
-7.68917
-7.67205
-7.65125
-7.62653
-7.59766
-7.56438
-7.52644
-7.48354
-7.43542
-7.38175
-7.3222
-7.25645
-7.1841
-7.10479
-7.01815
-6.92375
-6.82114
-6.7098
-6.58919
-6.45876
-6.31796
-6.16623
-6.00303
-5.82782
-5.64003
-5.43906
-5.22433
-4.99525
-4.75127
-4.49186
-4.21659
-3.9251
-3.61707
-3.29235
-2.95086
-2.59268
-2.21803
-1.82735
-1.42119
-1.0004
-0.565977
-0.11921
0.338467
0.805343
1.27962
1.75922
2.24199
2.72554
3.2076
3.68574
4.15773
4.62125
5.07428
5.51484
5.9413
6.35213
6.74621
7.12259
7.48065
7.81994
8.14026
8.44158
8.7241
8.98813
9.23423
9.463
9.67522
9.87152
10.0526
10.219
10.3717
10.5114
10.639
10.7552
10.861
10.9572
11.0445
11.1237
11.1955
11.2606
11.3197
11.3733
11.422
11.4664
11.5069
11.544
11.5781
11.6096
11.6388
11.6662
11.6919
11.7163
11.7396
11.7621
11.784
11.8055
11.8269
11.8485
11.8705
11.8937
11.9183
11.9462
11.9751
12.0179
12.031
-6.77749
-6.78471
-6.79615
-6.80504
-6.81076
-6.81464
-6.81742
-6.81951
-6.82124
-6.82293
-6.82482
-6.82708
-6.82985
-6.83325
-6.83733
-6.84217
-6.8478
-6.85425
-6.86155
-6.86971
-6.87872
-6.88861
-6.89935
-6.91094
-6.92334
-6.93654
-6.95051
-6.96523
-6.98064
-6.99674
-7.01345
-7.03078
-7.04866
-7.06707
-7.08596
-7.10532
-7.1251
-7.14527
-7.1658
-7.18666
-7.20781
-7.22923
-7.25088
-7.27273
-7.29474
-7.31689
-7.33912
-7.3614
-7.38368
-7.40592
-7.42805
-7.45002
-7.47178
-7.49325
-7.51435
-7.53503
-7.55518
-7.57473
-7.59356
-7.6116
-7.62873
-7.64484
-7.6598
-7.67351
-7.68582
-7.6966
-7.70572
-7.71303
-7.71837
-7.72159
-7.72252
-7.72101
-7.71687
-7.70993
-7.69999
-7.68685
-7.67032
-7.65018
-7.62621
-7.59816
-7.5658
-7.52886
-7.48707
-7.44015
-7.3878
-7.32969
-7.26547
-7.1948
-7.11729
-7.03259
-6.94026
-6.83985
-6.73086
-6.61276
-6.48501
-6.34706
-6.19833
-6.03828
-5.86633
-5.68188
-5.48434
-5.2731
-5.04755
-4.80713
-4.55131
-4.27962
-3.99166
-3.68712
-3.36577
-3.02751
-2.67238
-2.30057
-1.91245
-1.50857
-1.08972
-0.656894
-0.211314
0.245575
0.712109
1.18644
1.66653
2.15016
2.63498
3.11862
3.59867
4.07281
4.53872
4.99429
5.43755
5.86683
6.28064
6.67782
7.0574
7.41869
7.76121
8.08473
8.38921
8.67481
8.94185
9.19082
9.42229
9.63699
9.83558
10.0188
10.1873
10.3419
10.4835
10.6128
10.7307
10.838
10.9356
11.0243
11.1047
11.1776
11.2437
11.3037
11.3581
11.4075
11.4525
11.4935
11.531
11.5654
11.5971
11.6265
11.654
11.6797
11.7041
11.7273
11.7496
11.7713
11.7925
11.8136
11.8347
11.8562
11.8785
11.9019
11.9278
11.9531
11.9906
11.9904
-6.76608
-6.77442
-6.78787
-6.7987
-6.80603
-6.81131
-6.81532
-6.81851
-6.82121
-6.82376
-6.8264
-6.82934
-6.8327
-6.83663
-6.84118
-6.84644
-6.85243
-6.8592
-6.86676
-6.87514
-6.88433
-6.89434
-6.90515
-6.91676
-6.92913
-6.94227
-6.95612
-6.97069
-6.98592
-7.0018
-7.01828
-7.03535
-7.05296
-7.07109
-7.08969
-7.10876
-7.12825
-7.14813
-7.16837
-7.18896
-7.20985
-7.23102
-7.25242
-7.27406
-7.29586
-7.31782
-7.33987
-7.362
-7.38413
-7.40625
-7.42828
-7.45017
-7.47185
-7.49327
-7.51434
-7.53499
-7.55513
-7.57469
-7.59355
-7.61163
-7.62881
-7.64499
-7.66004
-7.67385
-7.68629
-7.69722
-7.70651
-7.714
-7.71956
-7.72304
-7.72425
-7.72306
-7.71928
-7.71273
-7.70324
-7.69061
-7.67464
-7.65512
-7.63184
-7.60457
-7.57306
-7.53708
-7.49634
-7.45058
-7.39949
-7.34275
-7.28004
-7.21099
-7.13524
-7.0524
-6.96208
-6.8638
-6.75708
-6.64138
-6.51618
-6.3809
-6.235
-6.07788
-5.90896
-5.7276
-5.53321
-5.32514
-5.10277
-4.86553
-4.61285
-4.34424
-4.05926
-3.75758
-3.4389
-3.10311
-2.75019
-2.3803
-1.99375
-1.59109
-1.17303
-0.740591
-0.29492
0.162495
0.630036
1.10575
1.58763
2.07336
2.56066
3.047
3.53
4.00717
4.47628
4.93507
5.38168
5.81428
6.23144
6.63187
7.01463
7.37893
7.72434
8.05056
8.3576
8.64558
8.91485
9.16584
9.39916
9.61546
9.81548
9.99993
10.1696
10.3253
10.4678
10.598
10.7168
10.8249
10.9231
11.0124
11.0933
11.1667
11.2332
11.2934
11.3481
11.3976
11.4427
11.4837
11.5212
11.5556
11.5872
11.6164
11.6437
11.6692
11.6933
11.7162
11.7381
11.7594
11.7802
11.8007
11.8213
11.842
11.8633
11.8853
11.909
11.9308
11.9637
11.9519
-6.7594
-6.76835
-6.78283
-6.79494
-6.80352
-6.80995
-6.81504
-6.81922
-6.82283
-6.82621
-6.8296
-6.83321
-6.83719
-6.84165
-6.84669
-6.85237
-6.85874
-6.86584
-6.87368
-6.88229
-6.89166
-6.9018
-6.9127
-6.92436
-6.93675
-6.94986
-6.96366
-6.97813
-6.99324
-7.00898
-7.02531
-7.0422
-7.05962
-7.07756
-7.09597
-7.11484
-7.13412
-7.15382
-7.17388
-7.19429
-7.21501
-7.23602
-7.25729
-7.2788
-7.30049
-7.32235
-7.34433
-7.36639
-7.38848
-7.41057
-7.43257
-7.45446
-7.47615
-7.49759
-7.5187
-7.53939
-7.55959
-7.57921
-7.59815
-7.61631
-7.63359
-7.64987
-7.66504
-7.67898
-7.69156
-7.70265
-7.71211
-7.7198
-7.72558
-7.72929
-7.73078
-7.72989
-7.72644
-7.72027
-7.7112
-7.69904
-7.6836
-7.66467
-7.64205
-7.61551
-7.58481
-7.54973
-7.50999
-7.46532
-7.41544
-7.36003
-7.29876
-7.23127
-7.15721
-7.07619
-6.98781
-6.89159
-6.78703
-6.67364
-6.55085
-6.41812
-6.27487
-6.12049
-5.95437
-5.77588
-5.58436
-5.37916
-5.15966
-4.92523
-4.67531
-4.40934
-4.12688
-3.82751
-3.51094
-3.17698
-2.82558
-2.45686
-2.0711
-1.66879
-1.25066
-0.817636
-0.370916
0.0880502
0.557573
1.0357
1.52032
2.00912
2.49974
2.98965
3.47635
3.95734
4.43029
4.89295
5.34332
5.77957
6.20019
6.60387
6.98962
7.35667
7.70457
8.03305
8.3421
8.63187
8.90271
9.15505
9.38951
9.60674
9.80751
9.99256
10.1627
10.3188
10.4616
10.5921
10.711
10.8193
10.9176
11.0069
11.0879
11.1612
11.2276
11.2877
11.3422
11.3915
11.4363
11.4771
11.5142
11.5482
11.5795
11.6084
11.6352
11.6603
11.6839
11.7063
11.7278
11.7486
11.7688
11.7887
11.8086
11.8284
11.8486
11.869
11.8905
11.9088
11.9376
11.916
-6.75766
-6.7667
-6.78139
-6.79408
-6.80345
-6.81071
-6.81662
-6.82158
-6.82596
-6.83005
-6.8341
-6.83832
-6.84284
-6.8478
-6.85328
-6.85935
-6.86606
-6.87346
-6.88155
-6.89038
-6.89992
-6.9102
-6.9212
-6.93292
-6.94534
-6.95846
-6.97224
-6.98668
-7.00173
-7.01739
-7.03363
-7.05042
-7.06773
-7.08556
-7.10386
-7.12262
-7.1418
-7.1614
-7.18136
-7.20169
-7.22234
-7.2433
-7.26453
-7.286
-7.30768
-7.32954
-7.35153
-7.37362
-7.39574
-7.41788
-7.43994
-7.4619
-7.48367
-7.50519
-7.52639
-7.54718
-7.56749
-7.58721
-7.60626
-7.62454
-7.64193
-7.65834
-7.67364
-7.68772
-7.70044
-7.71168
-7.7213
-7.72917
-7.73514
-7.73907
-7.7408
-7.74017
-7.73703
-7.7312
-7.72251
-7.71078
-7.69582
-7.67743
-7.65542
-7.62956
-7.59963
-7.56539
-7.5266
-7.48298
-7.43425
-7.3801
-7.32021
-7.25423
-7.1818
-7.10255
-7.01603
-6.9218
-6.81935
-6.70817
-6.5877
-6.4574
-6.31664
-6.16485
-6.00136
-5.82552
-5.63665
-5.43409
-5.21717
-4.98526
-4.73774
-4.47405
-4.19367
-3.89615
-3.58118
-3.24849
-2.89803
-2.52983
-2.14418
-1.74151
-1.32254
-0.888157
-0.439596
0.0217383
0.494043
0.975413
1.46357
1.95628
2.45098
2.94521
3.4363
3.92177
4.39906
4.86598
5.32035
5.76039
6.18444
6.59126
6.97976
7.34927
7.69925
8.02953
8.34006
8.63106
8.90285
9.15594
9.39089
9.60845
9.80934
9.9944
10.1644
10.3203
10.4629
10.5931
10.7116
10.8195
10.9175
11.0063
11.0868
11.1597
11.2256
11.2853
11.3392
11.388
11.4323
11.4725
11.5091
11.5425
11.5732
11.6015
11.6278
11.6523
11.6754
11.6973
11.7182
11.7384
11.758
11.7772
11.7963
11.8152
11.8342
11.8529
11.8721
11.8872
11.9123
11.8823
-6.76042
-6.76915
-6.78337
-6.79604
-6.80572
-6.81343
-6.81985
-6.82537
-6.83031
-6.83495
-6.83952
-6.84423
-6.8492
-6.85457
-6.86042
-6.86682
-6.87382
-6.88147
-6.88978
-6.89879
-6.90848
-6.91888
-6.92998
-6.94178
-6.95426
-6.96741
-6.9812
-6.99564
-7.01068
-7.02633
-7.04253
-7.05929
-7.07657
-7.09436
-7.11263
-7.13137
-7.15053
-7.17011
-7.19007
-7.21041
-7.23108
-7.25207
-7.27334
-7.29488
-7.31662
-7.33856
-7.36065
-7.38284
-7.40508
-7.42733
-7.44952
-7.47161
-7.49351
-7.51517
-7.5365
-7.55743
-7.57786
-7.59772
-7.61689
-7.6353
-7.65281
-7.66934
-7.68476
-7.69895
-7.71179
-7.72316
-7.73291
-7.74092
-7.74704
-7.75114
-7.75305
-7.75264
-7.74973
-7.74418
-7.73581
-7.72444
-7.7099
-7.69199
-7.67052
-7.64527
-7.61604
-7.58259
-7.54468
-7.50204
-7.4544
-7.40146
-7.34289
-7.27836
-7.2075
-7.12993
-7.04523
-6.95292
-6.85251
-6.74345
-6.62522
-6.49723
-6.35888
-6.20953
-6.04852
-5.87515
-5.68875
-5.48861
-5.27404
-5.04438
-4.79897
-4.53722
-4.25855
-3.9625
-3.64867
-3.31679
-2.96674
-2.59854
-2.21241
-1.8088
-1.38835
-0.951985
-0.500888
-0.0365369
0.439276
0.924528
1.41697
1.91425
2.41377
2.91293
3.409
3.89935
4.38138
4.85277
5.3113
5.75512
6.18254
6.5923
6.98332
7.3549
7.70658
8.03818
8.3497
8.64139
8.91358
9.16681
9.4017
9.61899
9.81946
10.004
10.1733
10.3285
10.4703
10.5997
10.7175
10.8245
10.9217
11.0097
11.0894
11.1614
11.2265
11.2853
11.3385
11.3865
11.43
11.4695
11.5053
11.5381
11.568
11.5957
11.6213
11.6451
11.6676
11.6888
11.7091
11.7287
11.7476
11.7661
11.7843
11.8022
11.8199
11.8371
11.854
11.8661
11.8878
11.8508
-6.76695
-6.77505
-6.78829
-6.80042
-6.80997
-6.81777
-6.82441
-6.83022
-6.83549
-6.84049
-6.84543
-6.85049
-6.85581
-6.86149
-6.86762
-6.87428
-6.88151
-6.88936
-6.89784
-6.907
-6.91682
-6.92734
-6.93853
-6.9504
-6.96294
-6.97615
-6.98999
-7.00447
-7.01954
-7.03521
-7.05144
-7.06823
-7.08554
-7.10337
-7.12168
-7.14046
-7.15968
-7.17933
-7.19937
-7.2198
-7.24057
-7.26167
-7.28306
-7.30473
-7.32662
-7.34871
-7.37095
-7.39331
-7.41572
-7.43814
-7.46051
-7.48277
-7.50483
-7.52665
-7.54814
-7.56921
-7.58978
-7.60976
-7.62906
-7.64757
-7.66518
-7.68179
-7.69729
-7.71156
-7.72447
-7.7359
-7.74572
-7.7538
-7.76
-7.76418
-7.76621
-7.76592
-7.76317
-7.75781
-7.74967
-7.73857
-7.72436
-7.70684
-7.68583
-7.66112
-7.6325
-7.59975
-7.56264
-7.52091
-7.47428
-7.42247
-7.36516
-7.30201
-7.23265
-7.1567
-7.07374
-6.98328
-6.88482
-6.77782
-6.66174
-6.53596
-6.39989
-6.25284
-6.09416
-5.92311
-5.73899
-5.54106
-5.32863
-5.10097
-4.8574
-4.59729
-4.32001
-4.02507
-3.71201
-3.38056
-3.03049
-2.66185
-2.2748
-1.86977
-1.44737
-1.00854
-0.554405
-0.0865357
0.393347
0.88306
1.38042
1.88283
2.38777
2.89234
3.39384
3.88935
4.37636
4.8523
5.31503
5.76251
6.19317
6.60559
6.99882
7.37209
7.72505
8.05749
8.36952
8.66134
8.9334
9.18622
9.4205
9.63697
9.83651
10.0199
10.1882
10.3421
10.4827
10.6109
10.7274
10.8333
10.9292
11.0161
11.0946
11.1655
11.2296
11.2873
11.3395
11.3865
11.429
11.4675
11.5025
11.5343
11.5635
11.5903
11.6152
11.6383
11.6601
11.6806
11.7003
11.7191
11.7374
11.7552
11.7725
11.7894
11.8058
11.8213
11.8361
11.8454
11.8639
11.8211
-6.77635
-6.78359
-6.79548
-6.80665
-6.81571
-6.82328
-6.82984
-6.8357
-6.84109
-6.84627
-6.85141
-6.85669
-6.86222
-6.86811
-6.87444
-6.88128
-6.88867
-6.89668
-6.9053
-6.91458
-6.92451
-6.93512
-6.9464
-6.95835
-6.97096
-6.98423
-6.99814
-7.01269
-7.02783
-7.04357
-7.05988
-7.07675
-7.09415
-7.11208
-7.13049
-7.14939
-7.16874
-7.18852
-7.20871
-7.22929
-7.25022
-7.27149
-7.29307
-7.31493
-7.33702
-7.35931
-7.38176
-7.40432
-7.42693
-7.44955
-7.47211
-7.49454
-7.51678
-7.53875
-7.56037
-7.58157
-7.60225
-7.62232
-7.64168
-7.66025
-7.67789
-7.69453
-7.71003
-7.72429
-7.73718
-7.74858
-7.75837
-7.76642
-7.7726
-7.77676
-7.77878
-7.77852
-7.77582
-7.77053
-7.7625
-7.75158
-7.73758
-7.72034
-7.69968
-7.6754
-7.6473
-7.61516
-7.57875
-7.53784
-7.49214
-7.44138
-7.38523
-7.32337
-7.25543
-7.18102
-7.09971
-7.01101
-6.91441
-6.80937
-6.69531
-6.57164
-6.43771
-6.29284
-6.13632
-5.96742
-5.7854
-5.58951
-5.37901
-5.15314
-4.91119
-4.65247
-4.37635
-4.08226
-3.76974
-3.43844
-3.08813
-2.71876
-2.3305
-1.92371
-1.49901
-1.05729
-0.599726
-0.127836
0.356564
0.851319
1.35407
1.8622
2.37296
2.88338
3.39054
3.89147
4.38349
4.864
5.33078
5.78178
6.21537
6.63016
7.02518
7.39973
7.75348
8.08629
8.39828
8.68973
8.9611
9.21299
9.44612
9.66129
9.85938
10.0413
10.2079
10.3603
10.4993
10.6258
10.7408
10.8451
10.9395
11.0249
11.1021
11.1716
11.2344
11.2908
11.3417
11.3876
11.429
11.4665
11.5004
11.5313
11.5595
11.5855
11.6095
11.6319
11.6529
11.6728
11.6917
11.7099
11.7274
11.7444
11.7609
11.7768
11.792
11.8058
11.8186
11.8252
11.841
11.7933
-6.78765
-6.79391
-6.80421
-6.81413
-6.82239
-6.82945
-6.83568
-6.84136
-6.84668
-6.85185
-6.85704
-6.8624
-6.86803
-6.87403
-6.88048
-6.88743
-6.89493
-6.90304
-6.91176
-6.92113
-6.93115
-6.94184
-6.9532
-6.96523
-6.97792
-6.99128
-7.00527
-7.0199
-7.03515
-7.051
-7.06742
-7.08442
-7.10196
-7.12003
-7.1386
-7.15767
-7.1772
-7.19717
-7.21754
-7.23832
-7.25946
-7.28095
-7.30274
-7.32482
-7.34713
-7.36964
-7.3923
-7.41507
-7.43788
-7.46069
-7.48341
-7.50599
-7.52836
-7.55044
-7.57214
-7.59339
-7.6141
-7.63417
-7.65351
-7.67203
-7.6896
-7.70614
-7.72153
-7.73565
-7.7484
-7.75964
-7.76927
-7.77715
-7.78316
-7.78717
-7.78905
-7.78867
-7.78587
-7.78053
-7.77248
-7.76159
-7.74769
-7.73061
-7.71017
-7.68621
-7.65851
-7.62687
-7.59107
-7.55086
-7.506
-7.45618
-7.40111
-7.34045
-7.27382
-7.20087
-7.12111
-7.03409
-6.93925
-6.83608
-6.72397
-6.60231
-6.47042
-6.32763
-6.17318
-6.00634
-5.82632
-5.63237
-5.42368
-5.1995
-4.95905
-4.70161
-4.4265
-4.13311
-3.82095
-3.4896
-3.13881
-2.76846
-2.37868
-1.96978
-1.5424
-1.09737
-0.635942
-0.159568
0.329796
0.83006
1.33862
1.85287
2.36974
2.88627
3.39921
3.90563
4.40257
4.88752
5.35807
5.81228
6.24839
6.66513
7.06146
7.4368
7.79081
8.12345
8.43485
8.72538
8.99552
9.24595
9.47742
9.69081
9.88699
10.0669
10.2316
10.382
10.519
10.6436
10.7566
10.8591
10.9518
11.0355
11.111
11.1791
11.2403
11.2953
11.3448
11.3894
11.4296
11.4659
11.4987
11.5285
11.5558
11.5809
11.604
11.6256
11.6458
11.665
11.6833
11.7008
11.7176
11.7339
11.7495
11.7644
11.7783
11.7906
11.8014
11.8057
11.8187
11.7673
-6.79999
-6.80517
-6.81376
-6.82222
-6.82947
-6.83579
-6.8415
-6.84679
-6.85185
-6.85686
-6.86196
-6.86727
-6.87288
-6.8789
-6.88537
-6.89237
-6.89993
-6.90809
-6.91688
-6.92632
-6.93641
-6.94718
-6.95861
-6.97072
-6.98349
-6.99693
-7.01102
-7.02575
-7.0411
-7.05708
-7.07365
-7.0908
-7.10851
-7.12676
-7.14553
-7.16479
-7.18452
-7.2047
-7.22529
-7.24629
-7.26764
-7.28934
-7.31134
-7.33363
-7.35614
-7.37884
-7.40168
-7.42461
-7.44756
-7.47048
-7.49329
-7.51593
-7.53832
-7.56039
-7.58205
-7.60323
-7.62383
-7.64377
-7.66294
-7.68125
-7.69859
-7.71488
-7.72998
-7.74381
-7.75623
-7.76715
-7.77644
-7.78399
-7.78967
-7.79336
-7.79494
-7.79428
-7.79124
-7.78569
-7.77748
-7.76649
-7.75254
-7.73549
-7.71517
-7.6914
-7.664
-7.63276
-7.59747
-7.5579
-7.51378
-7.46484
-7.41078
-7.35126
-7.28592
-7.21435
-7.13614
-7.05075
-6.95766
-6.85632
-6.74612
-6.62642
-6.49654
-6.35577
-6.20336
-6.03852
-5.86046
-5.66837
-5.46143
-5.23884
-4.99977
-4.74347
-4.46919
-4.17631
-3.86425
-3.53259
-3.18101
-2.80937
-2.41774
-2.00641
-1.57597
-1.1273
-0.661617
-0.180445
0.314304
0.820364
1.33509
1.85563
2.37881
2.90143
3.42015
3.93189
4.4336
4.92265
5.3966
5.85349
6.29162
6.70973
7.10682
7.48235
7.83604
8.16792
8.47816
8.76719
9.03556
9.28401
9.51334
9.72447
9.91833
10.0959
10.2582
10.4062
10.541
10.6634
10.7743
10.8747
10.9655
11.0473
11.121
11.1873
11.2469
11.3004
11.3485
11.3917
11.4305
11.4656
11.4972
11.526
11.5523
11.5764
11.5987
11.6195
11.639
11.6575
11.675
11.6919
11.7081
11.7236
11.7384
11.7523
11.765
11.7759
11.7849
11.787
11.7975
11.7431
-6.81255
-6.81664
-6.82348
-6.83039
-6.83647
-6.84189
-6.84688
-6.85163
-6.85626
-6.86095
-6.86581
-6.87094
-6.87644
-6.88237
-6.8888
-6.89578
-6.90334
-6.91152
-6.92034
-6.92982
-6.93996
-6.95078
-6.96227
-6.97445
-6.98729
-7.00081
-7.01499
-7.02983
-7.0453
-7.06141
-7.07812
-7.09543
-7.1133
-7.13173
-7.15067
-7.17013
-7.19005
-7.21042
-7.2312
-7.25237
-7.2739
-7.29575
-7.3179
-7.34031
-7.36292
-7.38571
-7.40861
-7.43157
-7.45452
-7.47741
-7.50015
-7.52268
-7.54493
-7.56681
-7.58825
-7.60916
-7.62946
-7.64905
-7.66785
-7.68575
-7.70266
-7.71848
-7.73311
-7.74643
-7.75834
-7.76874
-7.77751
-7.78453
-7.78971
-7.79291
-7.79402
-7.79291
-7.78947
-7.78357
-7.77508
-7.76385
-7.74975
-7.73262
-7.71232
-7.68866
-7.66148
-7.63057
-7.59573
-7.55673
-7.51332
-7.46522
-7.41215
-7.35374
-7.28967
-7.2195
-7.1428
-7.05903
-6.96766
-6.86811
-6.75978
-6.64199
-6.51407
-6.37525
-6.22479
-6.06185
-5.88564
-5.69531
-5.48999
-5.26884
-5.03099
-4.77565
-4.50203
-4.20943
-3.89725
-3.56504
-3.21241
-2.83922
-2.44547
-2.03148
-1.59777
-1.14526
-0.675087
-0.188908
0.311442
0.823441
1.34443
1.8712
2.40056
2.929
3.45324
3.9699
4.47598
4.96858
5.44538
5.90428
6.34376
6.76253
7.15972
7.53477
7.88753
8.21803
8.52655
8.81352
9.07962
9.32559
9.55236
9.76082
9.952
10.1269
10.2866
10.432
10.5642
10.6841
10.7928
10.891
10.9797
11.0595
11.1313
11.1958
11.2537
11.3056
11.3522
11.3939
11.4315
11.4652
11.4958
11.5235
11.5487
11.5719
11.5934
11.6134
11.6322
11.65
11.667
11.6832
11.6988
11.7136
11.7276
11.7406
11.7523
11.7617
11.769
11.7692
11.7772
11.7206
-6.82516
-6.82821
-6.83335
-6.83866
-6.84342
-6.84776
-6.85185
-6.85585
-6.85987
-6.86406
-6.8685
-6.87332
-6.87856
-6.88431
-6.89059
-6.89747
-6.90495
-6.91309
-6.92187
-6.93133
-6.94147
-6.95229
-6.9638
-6.976
-6.98887
-7.00243
-7.01666
-7.03155
-7.04709
-7.06327
-7.08005
-7.09744
-7.11539
-7.13391
-7.15294
-7.17249
-7.19249
-7.21294
-7.23379
-7.25502
-7.27659
-7.29847
-7.3206
-7.34297
-7.36551
-7.38819
-7.41093
-7.4337
-7.45641
-7.47902
-7.50144
-7.52361
-7.54545
-7.56689
-7.58783
-7.60822
-7.62795
-7.64695
-7.66511
-7.68236
-7.69859
-7.71371
-7.72762
-7.74022
-7.7514
-7.76108
-7.76912
-7.77545
-7.77993
-7.78248
-7.78296
-7.78129
-7.77732
-7.77096
-7.76207
-7.75052
-7.73619
-7.71891
-7.69857
-7.67496
-7.64796
-7.61734
-7.58293
-7.54448
-7.50177
-7.45451
-7.40242
-7.34516
-7.28234
-7.21357
-7.13835
-7.05617
-6.96648
-6.86869
-6.76215
-6.64622
-6.52015
-6.38321
-6.23459
-6.07346
-5.89897
-5.71025
-5.50642
-5.28656
-5.0498
-4.79527
-4.52216
-4.2297
-3.91725
-3.58431
-3.23049
-2.85555
-2.45952
-2.04271
-1.60566
-1.14918
-0.674491
-0.183208
0.322667
0.840569
1.36753
1.90023
2.43527
2.96909
3.49823
4.01926
4.52901
5.02456
5.50346
5.96367
6.40367
6.82232
7.21881