/*--------------------------------*- C++ -*----------------------------------*\
| =========                 |                                                 |
| \\      /  F ield         | OpenFOAM: The Open Source CFD Toolbox           |
|  \\    /   O peration     | Version:  2406                                  |
|   \\  /    A nd           | Website:  www.openfoam.com                      |
|    \\/     M anipulation  |                                                 |
\*---------------------------------------------------------------------------*/
FoamFile
{
    version     2.0;
    format      ascii;
    arch        "LSB;label=32;scalar=64";
    class       surfaceScalarField;
    location    "150";
    object      phi;
}
// * * * * * * * * * * * * * * * * * * * * * * * * * * * * * * * * * * * * * //

dimensions      [0 3 -1 0 0 0 0];

oriented        oriented;

internalField   nonuniform List<scalar> 
24170
(
3.11512e-06
7.32868e-08
3.01297e-06
1.02145e-07
2.91751e-06
9.54602e-08
2.82634e-06
9.11636e-08
2.74035e-06
8.59855e-08
2.66285e-06
7.74969e-08
2.59497e-06
6.78719e-08
2.53609e-06
5.88811e-08
2.48508e-06
5.10055e-08
2.44086e-06
4.42182e-08
2.40247e-06
3.83929e-08
2.36908e-06
3.33785e-08
2.34005e-06
2.90276e-08
2.31484e-06
2.5216e-08
2.29313e-06
2.17005e-08
2.27448e-06
1.86548e-08
2.25874e-06
1.57299e-08
1.2371e-08
2.24637e-06
3.46865e-06
2.1884e-08
3.48677e-06
8.40201e-08
3.49345e-06
8.87816e-08
3.49232e-06
9.22877e-08
3.48433e-06
9.39715e-08
3.47073e-06
9.10972e-08
3.45281e-06
8.57873e-08
3.43178e-06
7.99036e-08
3.40876e-06
7.40299e-08
3.38465e-06
6.83244e-08
3.36016e-06
6.2876e-08
3.3358e-06
5.77334e-08
3.31195e-06
5.28777e-08
3.28887e-06
4.82944e-08
3.26676e-06
4.3809e-08
3.24585e-06
3.95647e-08
3.22686e-06
3.47106e-08
2.83837e-08
3.21085e-06
3.66801e-06
1.63896e-08
3.68031e-06
7.17173e-08
3.69001e-06
7.90821e-08
3.70003e-06
8.22611e-08
3.70915e-06
8.48545e-08
3.71625e-06
8.39957e-08
3.72122e-06
8.08113e-08
3.72428e-06
7.6845e-08
3.72565e-06
7.26525e-08
3.7256e-06
6.83761e-08
3.72437e-06
6.41029e-08
3.7222e-06
5.99022e-08
3.71929e-06
5.5785e-08
3.71584e-06
5.17382e-08
3.712e-06
4.76497e-08
3.70811e-06
4.34533e-08
3.70419e-06
3.86319e-08
3.26438e-08
3.69993e-06
3.92495e-06
1.68236e-08
3.93557e-06
6.11042e-08
3.94313e-06
7.15188e-08
3.95015e-06
7.52302e-08
3.95684e-06
7.81628e-08
3.96265e-06
7.81917e-08
3.96762e-06
7.58357e-08
3.97196e-06
7.25012e-08
3.97576e-06
6.88453e-08
3.97909e-06
6.50493e-08
3.98199e-06
6.11995e-08
3.98453e-06
5.73619e-08
3.98676e-06
5.35515e-08
3.98875e-06
4.97471e-08
3.99054e-06
4.58532e-08
3.99224e-06
4.17596e-08
3.99367e-06
3.72002e-08
3.18832e-08
3.99442e-06
4.20772e-06
1.62256e-08
4.21609e-06
5.27353e-08
4.22227e-06
6.53425e-08
4.22776e-06
6.97379e-08
4.23321e-06
7.27096e-08
4.23825e-06
7.31514e-08
4.24279e-06
7.12942e-08
4.24693e-06
6.83607e-08
4.25074e-06
6.50343e-08
4.25426e-06
6.15225e-08
4.25754e-06
5.79141e-08
4.26063e-06
5.42745e-08
4.26356e-06
5.06245e-08
4.26636e-06
4.69434e-08
4.26905e-06
4.31562e-08
4.27164e-06
3.91703e-08
4.274e-06
3.48391e-08
3.00361e-08
4.27585e-06
4.51042e-06
1.48883e-08
4.51713e-06
4.60273e-08
4.52284e-06
5.96288e-08
4.52798e-06
6.45968e-08
4.53313e-06
6.75617e-08
4.538e-06
6.82802e-08
4.54244e-06
6.68503e-08
4.54651e-06
6.42902e-08
4.55028e-06
6.12613e-08
4.55381e-06
5.79929e-08
4.55713e-06
5.45844e-08
4.5603e-06
5.11048e-08
4.56334e-06
4.75829e-08
4.56628e-06
4.40057e-08
4.56911e-06
4.03221e-08
4.57181e-06
3.64675e-08
4.57428e-06
3.23678e-08
2.79971e-08
4.57632e-06
4.83415e-06
1.34586e-08
4.83991e-06
4.02628e-08
4.84555e-06
5.39863e-08
4.85068e-06
5.94703e-08
4.85575e-06
6.249e-08
4.86059e-06
6.3438e-08
4.86505e-06
6.23889e-08
4.86916e-06
6.01792e-08
4.87299e-06
5.7432e-08
4.87658e-06
5.43939e-08
4.87999e-06
5.11768e-08
4.88324e-06
4.78543e-08
4.88636e-06
4.44642e-08
4.88936e-06
4.10043e-08
4.89223e-06
3.74473e-08
4.89494e-06
3.37567e-08
4.8974e-06
2.99093e-08
2.59362e-08
4.89946e-06
5.18096e-06
1.20812e-08
5.18606e-06
3.51593e-08
5.19159e-06
4.84513e-08
5.19673e-06
5.4328e-08
5.2018e-06
5.74202e-08
5.20669e-06
5.85459e-08
5.21125e-06
5.78277e-08
5.21548e-06
5.59452e-08
5.21944e-06
5.34709e-08
5.22317e-06
5.06627e-08
5.22671e-06
4.76423e-08
5.23007e-06
4.44883e-08
5.23329e-06
4.12472e-08
5.23636e-06
3.79296e-08
5.23928e-06
3.45289e-08
5.242e-06
3.10342e-08
5.24445e-06
2.74538e-08
2.38419e-08
5.24655e-06
5.55268e-06
1.07409e-08
5.55721e-06
3.06248e-08
5.56253e-06
4.31291e-08
5.56766e-06
4.91992e-08
5.57274e-06
5.23336e-08
5.57771e-06
5.35782e-08
5.5824e-06
5.31372e-08
5.58679e-06
5.15556e-08
5.59091e-06
4.93455e-08
5.5948e-06
4.67682e-08
5.59849e-06
4.39531e-08
5.602e-06
4.0983e-08
5.60533e-06
3.79119e-08
5.60849e-06
3.47635e-08
5.61147e-06
3.15483e-08
5.61423e-06
2.82752e-08
5.61672e-06
2.49699e-08
2.16962e-08
5.61886e-06
5.95107e-06
9.44362e-09
5.95512e-06
2.6579e-08
5.96018e-06
3.8068e-08
5.96526e-06
4.41153e-08
5.97035e-06
4.72421e-08
5.97537e-06
4.8551e-08
5.98018e-06
4.83289e-08
5.98472e-06
4.70145e-08
5.98901e-06
4.50536e-08
5.99307e-06
4.27041e-08
5.99692e-06
4.01001e-08
6.00058e-06
3.73278e-08
6.00404e-06
3.4447e-08
6.00731e-06
3.14924e-08
6.01037e-06
2.84875e-08
6.01319e-06
2.54553e-08
6.01573e-06
2.24298e-08
1.94756e-08
6.01795e-06
6.37805e-06
8.21006e-09
6.38168e-06
2.29411e-08
6.38647e-06
3.32794e-08
6.39148e-06
3.91049e-08
6.39655e-06
4.21654e-08
6.40161e-06
4.34905e-08
6.40651e-06
4.34286e-08
6.41118e-06
4.23421e-08
6.41562e-06
4.06112e-08
6.41984e-06
3.84822e-08
6.42385e-06
3.60917e-08
6.42765e-06
3.35276e-08
6.43124e-06
3.08535e-08
6.43462e-06
2.81125e-08
6.43777e-06
2.5337e-08
6.44066e-06
2.25586e-08
6.44328e-06
1.98135e-08
1.71636e-08
6.44559e-06
5.74182e-06
7.21901e-09
5.74463e-06
2.01357e-08
5.74846e-06
2.94412e-08
5.75263e-06
3.49413e-08
5.75689e-06
3.78961e-08
5.76118e-06
3.92034e-08
5.76537e-06
3.92335e-08
5.76941e-06
3.83076e-08
5.77326e-06
3.67553e-08
5.77693e-06
3.48064e-08
5.78043e-06
3.25964e-08
5.78374e-06
3.0214e-08
5.78687e-06
2.77247e-08
5.7898e-06
2.51756e-08
5.79254e-06
2.26044e-08
5.79505e-06
2.00462e-08
5.79732e-06
1.75366e-08
1.5134e-08
5.79935e-06
6.99922e-06
6.15582e-09
7.0022e-06
1.71558e-08
7.00636e-06
2.52749e-08
7.01101e-06
3.0289e-08
7.01586e-06
3.30477e-08
7.02077e-06
3.42895e-08
7.02562e-06
3.4382e-08
7.03032e-06
3.36058e-08
7.03484e-06
3.22382e-08
7.03915e-06
3.04868e-08
7.04327e-06
2.84829e-08
7.04716e-06
2.63135e-08
7.05084e-06
2.40444e-08
7.05429e-06
2.17252e-08
7.0575e-06
1.93961e-08
7.06045e-06
1.70937e-08
7.06314e-06
1.48503e-08
1.27207e-08
7.06555e-06
8.53197e-06
5.02976e-09
8.5351e-06
1.4029e-08
8.53956e-06
2.08106e-08
8.54469e-06
2.51589e-08
8.55013e-06
2.76049e-08
8.5557e-06
2.87145e-08
8.56126e-06
2.88244e-08
8.56669e-06
2.81749e-08
8.57193e-06
2.69908e-08
8.57697e-06
2.54518e-08
8.58177e-06
2.36789e-08
8.58633e-06
2.17558e-08
8.59062e-06
1.97449e-08
8.59465e-06
1.76959e-08
8.5984e-06
1.56484e-08
8.60186e-06
1.36377e-08
8.60501e-06
1.16919e-08
9.85926e-09
8.60787e-06
1.04004e-05
3.85215e-09
1.04036e-05
1.07774e-08
1.04084e-05
1.60739e-08
1.0414e-05
1.95656e-08
1.042e-05
2.15583e-08
1.04263e-05
2.24484e-08
1.04326e-05
2.25148e-08
1.04388e-05
2.19553e-08
1.04449e-05
2.09443e-08
1.04507e-05
1.96268e-08
1.04562e-05
1.81086e-08
1.04615e-05
1.64641e-08
1.04665e-05
1.47502e-08
1.04712e-05
1.30118e-08
1.04756e-05
1.12857e-08
1.04796e-05
9.60236e-09
1.04833e-05
7.98512e-09
6.4746e-09
1.04867e-05
1.2678e-05
2.63095e-09
1.26814e-05
7.39888e-09
1.26864e-05
1.10678e-08
1.26924e-05
1.35111e-08
1.26991e-05
1.48897e-08
1.27061e-05
1.54517e-08
1.27132e-05
1.53992e-08
1.27203e-05
1.48805e-08
1.27272e-05
1.40211e-08
1.27339e-05
1.29281e-08
1.27403e-05
1.16834e-08
1.27465e-05
1.03478e-08
1.27522e-05
8.96743e-09
1.27577e-05
7.57922e-09
1.27627e-05
6.21255e-09
1.27674e-05
4.89224e-09
1.27718e-05
3.63452e-09
2.47301e-09
1.27758e-05
1.54545e-05
1.35801e-09
1.5458e-05
3.85144e-09
1.54633e-05
5.73845e-09
1.54699e-05
6.94134e-09
1.54772e-05
7.53286e-09
1.54851e-05
7.64139e-09
1.54931e-05
7.38308e-09
1.55011e-05
6.84774e-09
1.5509e-05
6.11135e-09
1.55167e-05
5.23925e-09
1.55241e-05
4.28379e-09
1.55312e-05
3.2846e-09
1.55378e-05
2.27258e-09
1.55442e-05
1.27216e-09
1.55501e-05
3.03099e-10
1.55556e-05
-6.18718e-10
1.55607e-05
-1.48368e-09
-2.26669e-09
1.55654e-05
1.8839e-05
-5.22428e-12
1.88428e-05
1.17487e-11
1.88487e-05
-8.90204e-11
1.88559e-05
-3.37416e-10
1.88642e-05
-7.14281e-10
1.8873e-05
-1.19107e-09
1.88821e-05
-1.74378e-09
1.88913e-05
-2.35057e-09
1.89004e-05
-2.9891e-09
1.89093e-05
-3.63983e-09
1.89179e-05
-4.28698e-09
1.89261e-05
-4.91824e-09
1.89339e-05
-5.52319e-09
1.89412e-05
-6.09338e-09
1.89482e-05
-6.62184e-09
1.89546e-05
-7.10287e-09
1.89607e-05
-7.53453e-09
-7.90026e-09
1.89663e-05
2.29649e-05
-1.55883e-09
2.29693e-05
-4.41268e-09
2.29761e-05
-6.84726e-09
2.29846e-05
-8.82551e-09
2.29942e-05
-1.03634e-08
2.30046e-05
-1.15472e-08
2.30153e-05
-1.2467e-08
2.30261e-05
-1.31769e-08
2.30368e-05
-1.37144e-08
2.30473e-05
-1.41138e-08
2.30574e-05
-1.44066e-08
2.30671e-05
-1.46138e-08
2.30763e-05
-1.47511e-08
2.30851e-05
-1.48289e-08
2.30933e-05
-1.48561e-08
2.3101e-05
-1.48379e-08
2.31083e-05
-1.47814e-08
-1.46781e-08
2.3115e-05
1.68119e-05
-2.75948e-09
1.68153e-05
-7.81307e-09
1.68205e-05
-1.20567e-08
1.6827e-05
-1.53297e-08
1.68343e-05
-1.76747e-08
1.68421e-05
-1.93257e-08
1.68501e-05
-2.04763e-08
1.68581e-05
-2.12271e-08
1.68661e-05
-2.16551e-08
1.68738e-05
-2.18409e-08
1.68813e-05
-2.18494e-08
1.68884e-05
-2.17278e-08
1.68951e-05
-2.15081e-08
1.69015e-05
-2.12167e-08
1.69075e-05
-2.08716e-08
1.69132e-05
-2.0487e-08
1.69185e-05
-2.0073e-08
-1.96285e-08
1.69234e-05
1.46357e-05
-3.89059e-09
1.4639e-05
-1.10714e-08
1.4644e-05
-1.70901e-08
1.46502e-05
-2.15172e-08
1.4657e-05
-2.44962e-08
1.46642e-05
-2.65002e-08
1.46715e-05
-2.7805e-08
1.46788e-05
-2.85296e-08
1.46859e-05
-2.88016e-08
1.46928e-05
-2.87515e-08
1.46995e-05
-2.84753e-08
1.47058e-05
-2.8036e-08
1.47117e-05
-2.74819e-08
1.47174e-05
-2.68499e-08
1.47227e-05
-2.61681e-08
1.47276e-05
-2.54552e-08
1.47323e-05
-2.47266e-08
-2.39837e-08
1.47366e-05
1.27412e-05
-4.9127e-09
1.27444e-05
-1.43105e-08
1.27495e-05
-2.22007e-08
1.27555e-05
-2.75546e-08
1.2762e-05
-3.09459e-08
1.27687e-05
-3.32207e-08
1.27755e-05
-3.46241e-08
1.27822e-05
-3.52565e-08
1.27888e-05
-3.53191e-08
1.2795e-05
-3.50033e-08
1.2801e-05
-3.4428e-08
1.28066e-05
-3.36699e-08
1.28119e-05
-3.279e-08
1.28169e-05
-3.18354e-08
1.28215e-05
-3.08403e-08
1.28259e-05
-2.98265e-08
1.283e-05
-2.88098e-08
-2.77927e-08
1.28338e-05
1.10917e-05
-5.69233e-09
1.1095e-05
-1.7574e-08
1.11004e-05
-2.75959e-08
1.11063e-05
-3.35312e-08
1.11125e-05
-3.7083e-08
1.11188e-05
-3.95425e-08
1.11251e-05
-4.09684e-08
1.11313e-05
-4.14459e-08
1.11373e-05
-4.12714e-08
1.11429e-05
-4.06814e-08
1.11483e-05
-3.98047e-08
1.11534e-05
-3.8731e-08
1.11581e-05
-3.75345e-08
1.11626e-05
-3.62734e-08
1.11667e-05
-3.49854e-08
1.11706e-05
-3.3697e-08
1.11742e-05
-3.2426e-08
-3.11804e-08
1.11776e-05
9.65564e-06
-6.11577e-09
9.65904e-06
-2.09746e-08
9.66463e-06
-3.31876e-08
9.67041e-06
-3.93168e-08
9.67631e-06
-4.2987e-08
9.68235e-06
-4.5584e-08
9.68828e-06
-4.68963e-08
9.69395e-06
-4.7124e-08
9.69936e-06
-4.66813e-08
9.70449e-06
-4.58154e-08
9.70933e-06
-4.46467e-08
9.71388e-06
-4.32733e-08
9.71812e-06
-4.17819e-08
9.72208e-06
-4.02377e-08
9.72578e-06
-3.86829e-08
9.72922e-06
-3.71438e-08
9.73243e-06
-3.56337e-08
-3.41459e-08
9.7354e-06
8.40494e-06
-5.70547e-09
8.40932e-06
-2.535e-08
8.41473e-06
-3.86033e-08
8.41983e-06
-4.44211e-08
8.42539e-06
-4.85502e-08
8.43124e-06
-5.14363e-08
8.43695e-06
-5.26015e-08
8.44236e-06
-5.25359e-08
8.44747e-06
-5.17943e-08
8.45228e-06
-5.06257e-08
8.45678e-06
-4.91464e-08
8.46097e-06
-4.74658e-08
8.46486e-06
-4.56802e-08
8.46848e-06
-4.38603e-08
8.47185e-06
-4.20505e-08
8.47499e-06
-4.02799e-08
8.47792e-06
-3.85728e-08
-3.69386e-08
8.48071e-06
7.31364e-06
-2.06604e-09
7.3207e-06
-3.2409e-08
7.3265e-06
-4.44028e-08
7.3313e-06
-4.92244e-08
7.33667e-06
-5.39225e-08
7.34232e-06
-5.70884e-08
7.34784e-06
-5.8124e-08
7.35314e-06
-5.78319e-08
7.35818e-06
-5.68387e-08
7.36293e-06
-5.53767e-08
7.36736e-06
-5.35795e-08
7.37147e-06
-5.15781e-08
7.37528e-06
-4.94846e-08
7.37879e-06
-4.73745e-08
7.38204e-06
-4.52979e-08
7.38504e-06
-4.32845e-08
7.38781e-06
-4.13452e-08
-3.94284e-08
7.3903e-06
6.36047e-06
7.53273e-09
6.37029e-06
-4.2236e-08
6.37817e-06
-5.22849e-08
6.38523e-06
-5.62841e-08
6.39234e-06
-6.10381e-08
6.39895e-06
-6.36944e-08
6.40493e-06
-6.41029e-08
6.41046e-06
-6.33681e-08
6.41565e-06
-6.2025e-08
6.42048e-06
-6.02085e-08
6.42494e-06
-5.80448e-08
6.42904e-06
-5.56748e-08
6.43278e-06
-5.32272e-08
6.43618e-06
-5.07785e-08
6.43927e-06
-4.83866e-08
6.44208e-06
-4.60928e-08
6.44466e-06
-4.39283e-08
-4.19209e-08
6.44715e-06
5.53917e-06
1.38279e-08
5.54752e-06
-5.05859e-08
5.55586e-06
-6.06267e-08
5.56611e-06
-6.6535e-08
5.5773e-06
-7.22342e-08
5.58779e-06
-7.41844e-08
5.597e-06
-7.33127e-08
5.60494e-06
-7.13175e-08
5.6117e-06
-6.8784e-08
5.61734e-06
-6.58527e-08
5.62194e-06
-6.2647e-08
5.62559e-06
-5.93218e-08
5.62837e-06
-5.60124e-08
5.63039e-06
-5.27934e-08
5.63172e-06
-4.97162e-08
5.63247e-06
-4.685e-08
5.63275e-06
-4.42053e-08
-4.1874e-08
5.6327e-06
4.87157e-06
-3.01374e-08
4.88648e-06
-6.54917e-08
4.89722e-06
-7.13685e-08
4.90599e-06
-7.53105e-08
4.91303e-06
-7.92776e-08
4.9173e-06
-7.84604e-08
4.91813e-06
-7.41396e-08
4.91539e-06
-6.85767e-08
4.90939e-06
-6.27883e-08
4.90065e-06
-5.71162e-08
4.88973e-06
-5.17305e-08
4.87714e-06
-4.67305e-08
4.86332e-06
-4.2198e-08
4.84865e-06
-3.81255e-08
4.83344e-06
-3.44986e-08
4.81792e-06
-3.13411e-08
4.80239e-06
-2.86682e-08
-2.69747e-08
4.78748e-06
4.17254e-06
4.10705e-06
4.03568e-06
3.96037e-06
3.88109e-06
3.80263e-06
3.72849e-06
3.65991e-06
3.59712e-06
3.54001e-06
3.48828e-06
3.44155e-06
3.39935e-06
3.36122e-06
3.32672e-06
3.29538e-06
3.26671e-06
3.23974e-06
1.92234e-08
-1.92868e-08
4.22003e-08
-2.30663e-08
6.07408e-08
-1.86166e-08
7.25461e-08
-1.18776e-08
7.70527e-08
-4.57505e-09
7.46383e-08
2.34384e-09
6.63263e-08
8.24352e-09
5.34146e-08
1.28375e-08
3.71225e-08
1.62188e-08
1.84002e-08
1.86402e-08
-2.03931e-09
2.03617e-08
-2.39395e-08
2.18193e-08
-4.72327e-08
2.3225e-08
-7.18396e-08
2.45372e-08
-9.77545e-08
2.58571e-08
-1.25031e-07
2.72161e-08
-1.53687e-07
2.86065e-08
-1.8375e-07
3.00079e-08
-2.15184e-07
3.139e-08
-2.47962e-07
3.27253e-08
-2.81991e-07
3.39863e-08
-3.17198e-07
3.5154e-08
-3.53453e-07
3.62119e-08
-3.90658e-07
3.71495e-08
-4.28658e-07
3.79558e-08
-4.6734e-07
3.86247e-08
-5.06541e-07
3.91566e-08
-5.46158e-07
3.95605e-08
-5.86049e-07
3.98489e-08
-6.26146e-07
4.00427e-08
-6.66356e-07
4.01724e-08
-7.06664e-07
4.02584e-08
-7.47001e-07
4.03039e-08
-7.87363e-07
4.03173e-08
-8.27694e-07
4.03044e-08
-8.68007e-07
4.02725e-08
-9.08258e-07
4.02278e-08
-9.48473e-07
4.01775e-08
-9.88622e-07
4.01268e-08
-1.02874e-06
4.0079e-08
-1.06879e-06
4.00356e-08
-1.10883e-06
3.9999e-08
-1.14881e-06
3.99705e-08
-1.1888e-06
3.99506e-08
-1.22875e-06
3.99384e-08
-1.26871e-06
3.99321e-08
-1.30865e-06
3.99294e-08
-1.34861e-06
3.99296e-08
-1.38856e-06
3.99322e-08
-1.42853e-06
3.99357e-08
-1.46848e-06
3.99387e-08
-1.50846e-06
3.99388e-08
-1.54842e-06
3.99347e-08
-1.58839e-06
3.99241e-08
-1.62832e-06
3.99059e-08
-1.66825e-06
3.98762e-08
-1.70811e-06
3.98347e-08
-1.74794e-06
3.9778e-08
-1.78767e-06
3.97062e-08
-1.82733e-06
3.96146e-08
-1.86686e-06
3.95046e-08
-1.90628e-06
3.93723e-08
-1.94551e-06
3.92191e-08
-1.98459e-06
3.904e-08
-2.02344e-06
3.88371e-08
-2.06208e-06
3.86053e-08
-2.10044e-06
3.83478e-08
-2.13853e-06
3.80593e-08
-2.17627e-06
3.7744e-08
-2.21369e-06
3.73963e-08
-2.25071e-06
3.70209e-08
-2.28735e-06
3.66116e-08
-2.32351e-06
3.6173e-08
-2.35923e-06
3.56971e-08
-2.39442e-06
3.51893e-08
-2.42909e-06
3.46393e-08
-2.46315e-06
3.40526e-08
-2.4966e-06
3.34201e-08
-2.52934e-06
3.27481e-08
-2.56138e-06
3.2024e-08
-2.59262e-06
3.12549e-08
-2.62306e-06
3.04283e-08
-2.65258e-06
2.95506e-08
-2.68118e-06
2.86043e-08
-2.70874e-06
2.7597e-08
-2.73523e-06
2.65109e-08
-2.76052e-06
2.53515e-08
-2.78454e-06
2.40972e-08
-2.80716e-06
2.27406e-08
-2.82826e-06
2.12726e-08
-2.84777e-06
1.96643e-08
-2.86552e-06
1.79064e-08
-2.88136e-06
1.59748e-08
-2.89508e-06
1.38522e-08
-2.90645e-06
1.15042e-08
-2.91523e-06
8.90613e-09
-2.92116e-06
6.04779e-09
-2.92404e-06
2.98352e-09
-2.92386e-06
-8.3407e-11
-2.92076e-06
-3.0255e-09
-2.91474e-06
-5.96281e-09
-2.90571e-06
-9.00221e-09
-2.89353e-06
-1.21788e-08
-2.87805e-06
-1.55089e-08
-2.8591e-06
-1.89849e-08
-2.83654e-06
-2.26132e-08
-2.81018e-06
-2.63771e-08
-2.77992e-06
-3.02812e-08
-2.7456e-06
-3.43045e-08
-2.70712e-06
-3.84475e-08
-2.66437e-06
-4.26841e-08
-2.61728e-06
-4.70079e-08
-2.56578e-06
-5.13882e-08
-2.50983e-06
-5.58097e-08
-2.44943e-06
-6.02374e-08
-2.3846e-06
-6.46496e-08
-2.31538e-06
-6.90159e-08
-2.24186e-06
-7.33031e-08
-2.16414e-06
-7.74923e-08
-2.08234e-06
-8.15497e-08
-1.99669e-06
-8.53832e-08
-1.90744e-06
-8.89397e-08
-1.81487e-06
-9.22402e-08
-1.71926e-06
-9.52494e-08
-1.62098e-06
-9.79389e-08
-1.52039e-06
-1.00253e-07
-1.41791e-06
-1.02184e-07
-1.31394e-06
-1.03694e-07
-1.20892e-06
-1.04795e-07
-1.10329e-06
-1.05451e-07
-9.97485e-07
-1.05688e-07
-8.91917e-07
-1.05491e-07
-7.87026e-07
-1.04898e-07
-6.83171e-07
-1.03907e-07
-5.80745e-07
-1.02567e-07
-4.80056e-07
-1.00881e-07
-3.81419e-07
-9.89206e-08
-2.85119e-07
-9.66465e-08
-1.91304e-07
-9.42554e-08
-9.98053e-08
-9.19862e-08
-1.04744e-08
-8.98377e-08
7.67307e-08
-8.76821e-08
1.61047e-07
-8.47465e-08
2.41567e-07
-8.09097e-08
3.18056e-07
-7.68419e-08
3.90459e-07
-7.27263e-08
4.58809e-07
-6.86407e-08
5.2317e-07
-6.46286e-08
5.83644e-07
-6.07138e-08
6.40339e-07
-5.69153e-08
6.93383e-07
-5.32431e-08
7.42908e-07
-4.97085e-08
7.89058e-07
-4.63168e-08
8.31981e-07
-4.30758e-08
8.7183e-07
-3.99878e-08
9.08763e-07
-3.7059e-08
9.4294e-07
-3.42911e-08
9.74526e-07
-3.1689e-08
1.00369e-06
-2.92531e-08
1.0306e-06
-2.69878e-08
1.05542e-06
-2.48931e-08
1.07833e-06
-2.29732e-08
1.09951e-06
-2.12265e-08
1.11912e-06
-1.96554e-08
1.13734e-06
-1.82566e-08
1.15435e-06
-1.703e-08
1.1703e-06
-1.59693e-08
1.18535e-06
-1.50697e-08
1.19966e-06
-1.4319e-08
1.21336e-06
-1.37053e-08
1.22656e-06
-1.32028e-08
1.23935e-06
-1.27779e-08
1.25172e-06
-1.2368e-08
1.26361e-06
-1.18741e-08
1.27473e-06
-1.10999e-08
1.2844e-06
-9.64559e-09
1.29098e-06
-6.54364e-09
1.28964e-06
1.37118e-09
1.26919e-06
2.04896e-08
6.55167e-08
1.20367e-06
1.69041e-08
-3.62433e-08
2.40214e-08
-3.02417e-08
2.39579e-08
-1.8592e-08
1.91046e-08
-7.05719e-09
1.06858e-08
3.81433e-09
-7.7012e-10
1.37708e-08
-1.51412e-08
2.25873e-08
-3.24611e-08
3.01298e-08
-5.26834e-08
3.64151e-08
-7.56648e-08
4.15951e-08
-1.01221e-07
4.58926e-08
-1.2898e-07
4.95538e-08
-1.5857e-07
5.27913e-08
-1.89812e-07
5.57564e-08
-2.22527e-07
5.85509e-08
-2.56557e-07
6.12242e-08
-2.91756e-07
6.37859e-08
-3.27991e-07
6.6222e-08
-3.65126e-07
6.85068e-08
-4.03034e-07
7.06128e-08
-4.41581e-07
7.25152e-08
-4.80645e-07
7.41967e-08
-5.20101e-07
7.56478e-08
-5.59841e-07
7.68665e-08
-5.99762e-07
7.78553e-08
-6.39783e-07
7.86218e-08
-6.7983e-07
7.91814e-08
-7.19852e-07
7.95577e-08
-7.59803e-07
7.97782e-08
-7.99658e-07
7.98727e-08
-8.39377e-07
7.98707e-08
-8.78939e-07
7.97959e-08
-9.18319e-07
7.96652e-08
-9.57518e-07
7.94946e-08
-9.96527e-07
7.92972e-08
-1.03536e-06
7.90848e-08
-1.07401e-06
7.88665e-08
-1.1125e-06
7.86497e-08
-1.15083e-06
7.84395e-08
-1.18901e-06
7.82403e-08
-1.22704e-06
7.8054e-08
-1.26495e-06
7.78829e-08
-1.30272e-06
7.77272e-08
-1.34037e-06
7.75865e-08
-1.3779e-06
7.74588e-08
-1.41532e-06
7.73428e-08
-1.45264e-06
7.72355e-08
-1.48986e-06
7.7134e-08
-1.52697e-06
7.70345e-08
-1.56398e-06
7.69333e-08
-1.60089e-06
7.68262e-08
-1.63768e-06
7.67096e-08
-1.67434e-06
7.65795e-08
-1.71087e-06
7.64323e-08
-1.74724e-06
7.62637e-08
-1.78346e-06
7.60702e-08
-1.8195e-06
7.58481e-08
-1.85534e-06
7.55941e-08
-1.89096e-06
7.53047e-08
-1.92634e-06
7.49769e-08
-1.96147e-06
7.46083e-08
-1.99631e-06
7.41961e-08
-2.03085e-06
7.3738e-08
-2.06506e-06
7.32312e-08
-2.09891e-06
7.26738e-08
-2.13239e-06
7.20631e-08
-2.16545e-06
7.13981e-08
-2.19808e-06
7.06762e-08
-2.23024e-06
6.98968e-08
-2.26191e-06
6.9057e-08
-2.29305e-06
6.81562e-08
-2.32364e-06
6.71906e-08
-2.35363e-06
6.61592e-08
-2.38299e-06
6.5057e-08
-2.41169e-06
6.38824e-08
-2.4397e-06
6.26299e-08
-2.46695e-06
6.12987e-08
-2.49342e-06
5.98826e-08
-2.51905e-06
5.83796e-08
-2.54381e-06
5.67808e-08
-2.56764e-06
5.50834e-08
-2.59048e-06
5.32773e-08
-2.61228e-06
5.1358e-08
-2.63298e-06
4.93121e-08
-2.6525e-06
4.71342e-08
-2.67078e-06
4.4809e-08
-2.68772e-06
4.23279e-08
-2.70324e-06
3.96702e-08
-2.71724e-06
3.68262e-08
-2.72965e-06
3.37703e-08
-2.74037e-06
3.04901e-08
-2.74934e-06
2.69683e-08
-2.75648e-06
2.31934e-08
-2.76171e-06
1.91644e-08
-2.765e-06
1.48775e-08
-2.76637e-06
1.03443e-08
-2.76583e-06
5.57993e-09
-2.7634e-06
6.1334e-10
-2.75886e-06
-4.57379e-09
-2.75183e-06
-1.0019e-08
-2.74202e-06
-1.57471e-08
-2.72925e-06
-2.17656e-08
-2.71336e-06
-2.80865e-08
-2.69418e-06
-3.47126e-08
-2.67156e-06
-4.16404e-08
-2.64534e-06
-4.8864e-08
-2.61537e-06
-5.63701e-08
-2.58151e-06
-6.41476e-08
-2.54364e-06
-7.21748e-08
-2.50163e-06
-8.04322e-08
-2.45539e-06
-8.88865e-08
-2.40484e-06
-9.75065e-08
-2.34991e-06
-1.06246e-07
-2.29058e-06
-1.1506e-07
-2.22683e-06
-1.23888e-07
-2.1587e-06
-1.32676e-07
-2.08623e-06
-1.41355e-07
-2.00955e-06
-1.49866e-07
-1.92877e-06
-1.58135e-07
-1.84408e-06
-1.66097e-07
-1.75568e-06
-1.73626e-07
-1.66384e-06
-1.80598e-07
-1.56889e-06
-1.86996e-07
-1.47116e-06
-1.92785e-07
-1.37103e-06
-1.97874e-07
-1.26892e-06
-2.02192e-07
-1.16524e-06
-2.05695e-07
-1.06045e-06
-2.08342e-07
-9.55008e-07
-2.1012e-07
-8.4936e-07
-2.1101e-07
-7.43951e-07
-2.11031e-07
-6.39215e-07
-2.10195e-07
-5.3556e-07
-2.08549e-07
-4.33371e-07
-2.06126e-07
-3.32999e-07
-2.02998e-07
-2.34764e-07
-1.99207e-07
-1.38925e-07
-1.94882e-07
-4.55628e-08
-1.90165e-07
4.51776e-08
-1.85179e-07
1.3287e-07
-1.79878e-07
2.16998e-07
-1.74163e-07
2.97095e-07
-1.67966e-07
3.73303e-07
-1.61124e-07
4.45979e-07
-1.53745e-07
5.15123e-07
-1.46132e-07
5.80718e-07
-1.38461e-07
6.42781e-07
-1.30831e-07
7.01348e-07
-1.23316e-07
7.56484e-07
-1.1596e-07
8.08269e-07
-1.08803e-07
8.56802e-07
-1.01871e-07
9.02192e-07
-9.51868e-08
9.44561e-07
-8.87679e-08
9.84041e-07
-8.26305e-08
1.02077e-06
-7.67856e-08
1.05489e-06
-7.12447e-08
1.08656e-06
-6.60169e-08
1.11593e-06
-6.111e-08
1.14316e-06
-5.65309e-08
1.16842e-06
-5.22843e-08
1.19187e-06
-4.83766e-08
1.21368e-06
-4.48101e-08
1.23402e-06
-4.15888e-08
1.25306e-06
-3.87096e-08
1.27096e-06
-3.61736e-08
1.2879e-06
-3.39734e-08
1.30403e-06
-3.2104e-08
1.31951e-06
-3.05475e-08
1.33448e-06
-2.92883e-08
1.34908e-06
-2.82925e-08
1.3634e-06
-2.75188e-08
1.37753e-06
-2.68913e-08
1.39148e-06
-2.63002e-08
1.40518e-06
-2.55483e-08
1.41839e-06
-2.42872e-08
1.43062e-06
-2.184e-08
1.44082e-06
-1.67124e-08
1.44802e-06
-5.78922e-09
1.45015e-06
1.83964e-08
7.3007e-08
1.44268e-06
1.81035e-09
-3.80947e-08
-5.17755e-09
-2.32936e-08
-1.59811e-08
-7.81329e-09
-2.9193e-08
6.13494e-09
-4.42158e-08
1.88203e-08
-6.08386e-08
3.03776e-08
-7.90766e-08
4.08104e-08
-9.90523e-08
5.00904e-08
-1.20886e-07
5.82345e-08
-1.44634e-07
6.53277e-08
-1.70262e-07
7.1507e-08
-1.97655e-07
7.69322e-08
-2.26636e-07
8.17591e-08
-2.57011e-07
8.61182e-08
-2.88577e-07
9.01039e-08
-3.21139e-07
9.37731e-08
-3.54517e-07
9.71529e-08
-3.88556e-07
1.00249e-07
-4.23117e-07
1.03057e-07
-4.58083e-07
1.05567e-07
-4.9335e-07
1.07771e-07
-5.28831e-07
1.09665e-07
-5.64446e-07
1.11251e-07
-6.00128e-07
1.12536e-07
-6.35822e-07
1.13537e-07
-6.71495e-07
1.1428e-07
-7.07121e-07
1.14794e-07
-7.42686e-07
1.15107e-07
-7.78173e-07
1.15252e-07
-8.13575e-07
1.15259e-07
-8.48875e-07
1.15157e-07
-8.84067e-07
1.14973e-07
-9.19141e-07
1.14727e-07
-9.54099e-07
1.14438e-07
-9.88937e-07
1.14124e-07
-1.02366e-06
1.13796e-07
-1.05827e-06
1.13467e-07
-1.09278e-06
1.13143e-07
-1.12718e-06
1.1283e-07
-1.16149e-06
1.12534e-07
-1.1957e-06
1.12255e-07
-1.22982e-06
1.11997e-07
-1.26386e-06
1.11758e-07
-1.29782e-06
1.11536e-07
-1.3317e-06
1.1133e-07
-1.3655e-06
1.11136e-07
-1.39923e-06
1.10951e-07
-1.43287e-06
1.10769e-07
-1.46643e-06
1.10587e-07
-1.4999e-06
1.10397e-07
-1.53328e-06
1.10195e-07
-1.56656e-06
1.09975e-07
-1.59972e-06
1.09731e-07
-1.63276e-06
1.09458e-07
-1.66566e-06
1.09151e-07
-1.6984e-06
1.08803e-07
-1.73098e-06
1.08412e-07
-1.76337e-06
1.07971e-07
-1.79556e-06
1.07476e-07
-1.82752e-06
1.06923e-07
-1.85924e-06
1.06309e-07
-1.89068e-06
1.0563e-07
-1.92184e-06
1.04882e-07
-1.95269e-06
1.04062e-07
-1.98319e-06
1.03168e-07
-2.01334e-06
1.02196e-07
-2.04309e-06
1.01143e-07
-2.07243e-06
1.00008e-07
-2.10133e-06
9.87867e-08
-2.12976e-06
9.74773e-08
-2.15768e-06
9.60767e-08
-2.18508e-06
9.45813e-08
-2.21191e-06
9.29875e-08
-2.23815e-06
9.12906e-08
-2.26375e-06
8.94864e-08
-2.2887e-06
8.75696e-08
-2.31294e-06
8.55358e-08
-2.33644e-06
8.33788e-08
-2.35915e-06
8.10924e-08
-2.38104e-06
7.86681e-08
-2.40205e-06
7.6098e-08
-2.42214e-06
7.33714e-08
-2.44125e-06
7.04778e-08
-2.45934e-06
6.74039e-08
-2.47633e-06
6.41373e-08
-2.49217e-06
6.06619e-08
-2.50679e-06
5.69622e-08
-2.5201e-06
5.30202e-08
-2.53205e-06
4.88151e-08
-2.54254e-06
4.43309e-08
-2.55154e-06
3.95435e-08
-2.55895e-06
3.44373e-08
-2.56472e-06
2.90054e-08
-2.56875e-06
2.32373e-08
-2.57096e-06
1.71337e-08
-2.57126e-06
1.06879e-08
-2.56955e-06
3.89809e-09
-2.56565e-06
-3.25723e-09
-2.55939e-06
-1.08156e-08
-2.55058e-06
-1.88142e-08
-2.53906e-06
-2.72654e-08
-2.52466e-06
-3.61744e-08
-2.50723e-06
-4.55456e-08
-2.4866e-06
-5.5375e-08
-2.46262e-06
-6.56599e-08
-2.43512e-06
-7.63844e-08
-2.40398e-06
-8.7537e-08
-2.36904e-06
-9.90919e-08
-2.33019e-06
-1.11025e-07
-2.28731e-06
-1.23297e-07
-2.2403e-06
-1.35867e-07
-2.18909e-06
-1.48676e-07
-2.13363e-06
-1.61663e-07
-2.07388e-06
-1.74751e-07
-2.00985e-06
-1.87856e-07
-1.94157e-06
-2.00883e-07
-1.86911e-06
-2.13732e-07
-1.79259e-06
-2.26299e-07
-1.71217e-06
-2.3847e-07
-1.62803e-06
-2.50137e-07
-1.54039e-06
-2.6115e-07
-1.44954e-06
-2.71331e-07
-1.3558e-06
-2.80597e-07
-1.25955e-06
-2.88906e-07
-1.16116e-06
-2.9613e-07
-1.06106e-06
-3.02174e-07
-9.59671e-07
-3.06967e-07
-8.57455e-07
-3.10465e-07
-7.54851e-07
-3.1264e-07
-6.52313e-07
-3.1349e-07
-5.50266e-07
-3.13032e-07
-4.49133e-07
-3.11307e-07
-3.49299e-07
-3.08376e-07
-2.51132e-07
-3.04312e-07
-1.5495e-07
-2.99215e-07
-6.09969e-08
-2.93219e-07
3.04927e-08
-2.86448e-07
1.19202e-07
-2.78971e-07
2.04783e-07
-2.70872e-07
2.86997e-07
-2.62208e-07
3.65702e-07
-2.5298e-07
4.40797e-07
-2.43159e-07
5.12343e-07
-2.32758e-07
5.80452e-07
-2.2193e-07
6.45142e-07
-2.10892e-07
7.0643e-07
-1.99809e-07
7.64345e-07
-1.88802e-07
8.18941e-07
-1.7796e-07
8.70289e-07
-1.67353e-07
9.18476e-07
-1.57031e-07
9.63606e-07
-1.47038e-07
1.00579e-06
-1.37407e-07
1.04516e-06
-1.28167e-07
1.08184e-06
-1.19341e-07
1.11597e-06
-1.10948e-07
1.14771e-06
-1.03006e-07
1.1772e-06
-9.55287e-08
1.20459e-06
-8.85275e-08
1.23005e-06
-8.20142e-08
1.25375e-06
-7.59954e-08
1.27583e-06
-7.04801e-08
1.29648e-06
-6.54714e-08
1.31585e-06
-6.09737e-08
1.33411e-06
-5.69836e-08
1.35142e-06
-5.35002e-08
1.36795e-06
-5.05141e-08
1.38385e-06
-4.80145e-08
1.39927e-06
-4.59778e-08
1.41435e-06
-4.43766e-08
1.42921e-06
-4.31635e-08
1.44396e-06
-4.22737e-08
1.45866e-06
-4.16011e-08
1.47333e-06
-4.09855e-08
1.48793e-06
-4.01559e-08
1.50228e-06
-3.86458e-08
1.51604e-06
-3.56053e-08
1.52866e-06
-2.93355e-08
1.53963e-06
-1.67559e-08
1.54933e-06
8.68423e-09
6.1195e-08
1.56113e-06
-1.14349e-08
-2.66941e-08
-2.74571e-08
-7.30114e-09
-4.48354e-08
9.54691e-09
-6.30353e-08
2.43204e-08
-8.19286e-08
3.77013e-08
-1.01532e-07
4.99694e-08
-1.21944e-07
6.1211e-08
-1.43306e-07
7.14409e-08
-1.65756e-07
8.06738e-08
-1.89392e-07
8.89534e-08
-2.1425e-07
9.63541e-08
-2.403e-07
1.02971e-07
-2.67454e-07
1.08904e-07
-2.9559e-07
1.14244e-07
-3.24562e-07
1.19067e-07
-3.54224e-07
1.23426e-07
-3.84436e-07
1.27356e-07
-4.15077e-07
1.30881e-07
-4.46039e-07
1.3401e-07
-4.77236e-07
1.36754e-07
-5.08594e-07
1.39121e-07
-5.40058e-07
1.41121e-07
-5.71586e-07
1.42771e-07
-6.0315e-07
1.4409e-07
-6.34727e-07
1.45105e-07
-6.66304e-07
1.45847e-07
-6.97867e-07
1.46348e-07
-7.29412e-07
1.46641e-07
-7.60929e-07
1.46758e-07
-7.92413e-07
1.46732e-07
-8.23856e-07
1.4659e-07
-8.55255e-07
1.46361e-07
-8.86604e-07
1.46066e-07
-9.17903e-07
1.45726e-07
-9.49148e-07
1.45358e-07
-9.80339e-07
1.44977e-07
-1.01147e-06
1.44593e-07
-1.04256e-06
1.44215e-07
-1.07359e-06
1.4385e-07
-1.10456e-06
1.43502e-07
-1.13549e-06
1.43173e-07
-1.16637e-06
1.42866e-07
-1.1972e-06
1.42579e-07
-1.22798e-06
1.42309e-07
-1.25871e-06
1.42055e-07
-1.28939e-06
1.4181e-07
-1.32002e-06
1.41571e-07
-1.35059e-06
1.41332e-07
-1.38109e-06
1.41085e-07
-1.41152e-06
1.40826e-07
-1.44188e-06
1.40545e-07
-1.47215e-06
1.40237e-07
-1.50232e-06
1.39894e-07
-1.53238e-06
1.39509e-07
-1.56231e-06
1.39077e-07
-1.59211e-06
1.38589e-07
-1.62175e-06
1.38041e-07
-1.65121e-06
1.37427e-07
-1.68049e-06
1.3674e-07
-1.70955e-06
1.35976e-07
-1.73839e-06
1.35131e-07
-1.76697e-06
1.34199e-07
-1.79527e-06
1.33177e-07
-1.82328e-06
1.3206e-07
-1.85097e-06
1.30845e-07
-1.87831e-06
1.29528e-07
-1.90529e-06
1.28107e-07
-1.93186e-06
1.26576e-07
-1.95802e-06
1.24934e-07
-1.98372e-06
1.23177e-07
-2.00895e-06
1.213e-07
-2.03367e-06
1.19299e-07
-2.05785e-06
1.17171e-07
-2.08147e-06
1.14908e-07
-2.1045e-06
1.12507e-07
-2.12689e-06
1.0996e-07
-2.14862e-06
1.07261e-07
-2.16964e-06
1.04403e-07
-2.18992e-06
1.01377e-07
-2.20943e-06
9.81721e-08
-2.2281e-06
9.47786e-08
-2.24591e-06
9.11836e-08
-2.2628e-06
8.73732e-08
-2.27873e-06
8.33321e-08
-2.29363e-06
7.90436e-08
-2.30745e-06
7.44894e-08
-2.32012e-06
6.96501e-08
-2.33158e-06
6.45039e-08
-2.34176e-06
5.90312e-08
-2.3506e-06
5.3202e-08
-2.35802e-06
4.70008e-08
-2.36395e-06
4.04011e-08
-2.3683e-06
3.33882e-08
-2.37099e-06
2.59454e-08
-2.37189e-06
1.80593e-08
-2.3709e-06
9.70998e-09
-2.36786e-06
8.77368e-10
-2.36264e-06
-8.47227e-09
-2.35508e-06
-1.83754e-08
-2.34503e-06
-2.88627e-08
-2.33236e-06
-3.99513e-08
-2.31692e-06
-5.1649e-08
-2.29854e-06
-6.39605e-08
-2.27707e-06
-7.688e-08
-2.25236e-06
-9.04024e-08
-2.22426e-06
-1.04509e-07
-2.19264e-06
-1.19183e-07
-2.15734e-06
-1.34391e-07
-2.11827e-06
-1.501e-07