/*--------------------------------*- C++ -*----------------------------------*\
| =========                 |                                                 |
| \\      /  F ield         | OpenFOAM: The Open Source CFD Toolbox           |
|  \\    /   O peration     | Version:  2406                                  |
|   \\  /    A nd           | Website:  www.openfoam.com                      |
|    \\/     M anipulation  |                                                 |
\*---------------------------------------------------------------------------*/
FoamFile
{
    version     2.0;
    format      ascii;
    arch        "LSB;label=32;scalar=64";
    class       volVectorField;
    location    "150";
    object      U;
}
// * * * * * * * * * * * * * * * * * * * * * * * * * * * * * * * * * * * * * //

dimensions      [0 1 -1 0 0 0 0];

internalField   nonuniform List<vector> 
12225
(
(9.84118 -0.956374 0)
(9.59255 -0.887949 0)
(9.31758 -0.594498 0)
(9.01477 -0.370019 0)
(8.72588 -0.225988 0)
(8.46729 -0.137882 0)
(8.24025 -0.0845009 0)
(8.04203 -0.0516484 0)
(7.87017 -0.0312548 0)
(7.72125 -0.0186268 0)
(7.59228 -0.0106888 0)
(7.4801 -0.00575868 0)
(7.38262 -0.00276576 0)
(7.29778 -0.0010705 0)
(7.22404 -0.000212329 0)
(7.16229 -0.000600131 0)
(7.10322 0.00231825 0)
(7.07601 -0.017623 0)
(10.0722 0.255857 0)
(10.1867 0.418352 0)
(10.2285 0.38414 0)
(10.2296 0.3104 0)
(10.2114 0.245675 0)
(10.1794 0.195424 0)
(10.1335 0.157661 0)
(10.076 0.129646 0)
(10.0106 0.10879 0)
(9.94108 0.0930486 0)
(9.86954 0.080861 0)
(9.79783 0.0712348 0)
(9.72699 0.0634165 0)
(9.65822 0.056933 0)
(9.59185 0.0511349 0)
(9.5289 0.046462 0)
(9.46987 0.0398647 0)
(9.41683 0.0397752 0)
(10.0032 0.0599568 0)
(10.0309 0.0482956 0)
(10.0614 0.00999531 0)
(10.0898 -8.76915e-06 0)
(10.1152 0.0081498 0)
(10.1377 0.0194 0)
(10.1548 0.0289815 0)
(10.1658 0.0364569 0)
(10.1716 0.0420057 0)
(10.1732 0.0458464 0)
(10.1713 0.0482929 0)
(10.1666 0.0496383 0)
(10.1595 0.0501174 0)
(10.1507 0.0498771 0)
(10.1407 0.0489466 0)
(10.1299 0.0473292 0)
(10.1192 0.0447022 0)
(10.1074 0.0397555 0)
(9.99715 0.00991719 0)
(10.009 0.026093 0)
(10.0342 0.0382972 0)
(10.0554 0.0533784 0)
(10.0722 0.0649019 0)
(10.0876 0.0702335 0)
(10.1015 0.0713758 0)
(10.1135 0.0706079 0)
(10.1238 0.0690147 0)
(10.1328 0.067022 0)
(10.1407 0.064828 0)
(10.1476 0.0625541 0)
(10.1536 0.0602181 0)
(10.159 0.0577963 0)
(10.1638 0.0551456 0)
(10.1682 0.0521199 0)
(10.1721 0.0482148 0)
(10.1752 0.0423446 0)
(9.99907 0.00680843 0)
(10.0082 0.0342995 0)
(10.0279 0.0483435 0)
(10.0436 0.0548774 0)
(10.0559 0.0583348 0)
(10.0679 0.0595045 0)
(10.0794 0.0592605 0)
(10.0899 0.0585022 0)
(10.0993 0.0575899 0)
(10.1079 0.0565578 0)
(10.116 0.055396 0)
(10.1236 0.0540982 0)
(10.1307 0.0526382 0)
(10.1375 0.050956 0)
(10.144 0.0489272 0)
(10.1503 0.0463889 0)
(10.1562 0.0430041 0)
(10.1614 0.038468 0)
(10.0002 0.00924142 0)
(10.008 0.0334037 0)
(10.0236 0.0440615 0)
(10.0369 0.0483791 0)
(10.0478 0.0518282 0)
(10.0586 0.0542119 0)
(10.0691 0.0552277 0)
(10.0786 0.0553722 0)
(10.0873 0.0550375 0)
(10.0953 0.0543534 0)
(10.1029 0.0533725 0)
(10.1101 0.0521357 0)
(10.117 0.0506515 0)
(10.1236 0.0488872 0)
(10.13 0.0467533 0)
(10.1361 0.044126 0)
(10.1419 0.0408276 0)
(10.147 0.0367391 0)
(10.0003 0.00912268 0)
(10.007 0.0287492 0)
(10.0201 0.0388758 0)
(10.0323 0.0439983 0)
(10.0426 0.0480867 0)
(10.0526 0.0508736 0)
(10.0623 0.0520999 0)
(10.0713 0.0523128 0)
(10.0794 0.0519755 0)
(10.0871 0.0512617 0)
(10.0943 0.05024 0)
(10.1012 0.0489539 0)
(10.1078 0.0474163 0)
(10.1141 0.0455987 0)
(10.1202 0.0434339 0)
(10.126 0.0408322 0)
(10.1313 0.037699 0)
(10.1361 0.034001 0)
(10.0004 0.00814062 0)
(10.006 0.0246994 0)
(10.0171 0.0348613 0)
(10.0283 0.040494 0)
(10.0382 0.0445563 0)
(10.0476 0.0472519 0)
(10.0567 0.04851 0)
(10.0653 0.0488014 0)
(10.0732 0.0485381 0)
(10.0806 0.0478858 0)
(10.0876 0.0469117 0)
(10.0942 0.0456564 0)
(10.1006 0.044136 0)
(10.1067 0.0423311 0)
(10.1124 0.0401981 0)
(10.1179 0.0376813 0)
(10.1229 0.0347416 0)
(10.1274 0.0314021 0)
(10.0004 0.00720451 0)
(10.0052 0.0215036 0)
(10.0146 0.0312413 0)
(10.0248 0.0369057 0)
(10.0341 0.0407855 0)
(10.043 0.0433934 0)
(10.0517 0.0447334 0)
(10.06 0.0451474 0)
(10.0676 0.0449827 0)
(10.0748 0.0444039 0)
(10.0816 0.0434832 0)
(10.0881 0.0422638 0)
(10.0943 0.0407687 0)
(10.1001 0.0389915 0)
(10.1057 0.0369109 0)
(10.1109 0.0345014 0)
(10.1156 0.0317592 0)
(10.1198 0.0287377 0)
(10.0004 0.00636478 0)
(10.0045 0.0187275 0)
(10.0125 0.0277148 0)
(10.0216 0.0332374 0)
(10.0304 0.0369644 0)
(10.0388 0.0394944 0)
(10.047 0.0408849 0)
(10.0549 0.0413861 0)
(10.0624 0.0412938 0)
(10.0694 0.0407726 0)
(10.076 0.0398992 0)
(10.0823 0.03872 0)
(10.0883 0.0372635 0)
(10.094 0.035536 0)
(10.0993 0.0335341 0)
(10.1043 0.0312557 0)
(10.1088 0.0287174 0)
(10.1128 0.0259855 0)
(10.0004 0.00557415 0)
(10.0039 0.0162279 0)
(10.0107 0.0243479 0)
(10.0189 0.0296203 0)
(10.027 0.0331745 0)
(10.0349 0.0355846 0)
(10.0427 0.0369636 0)
(10.0502 0.037507 0)
(10.0574 0.0374618 0)
(10.0642 0.0369852 0)
(10.0706 0.0361564 0)
(10.0768 0.0350234 0)
(10.0826 0.0336191 0)
(10.088 0.0319606 0)
(10.0932 0.0300581 0)
(10.0979 0.0279257 0)
(10.1022 0.0255907 0)
(10.1062 0.0231231 0)
(10.0003 0.00486861 0)
(10.0034 0.0141248 0)
(10.0093 0.0214185 0)
(10.0167 0.0263665 0)
(10.0242 0.0297176 0)
(10.0317 0.0319809 0)
(10.039 0.0333062 0)
(10.0462 0.0338554 0)
(10.0531 0.0338341 0)
(10.0597 0.0333875 0)
(10.0659 0.0325952 0)
(10.0719 0.0315068 0)
(10.0775 0.0301584 0)
(10.0828 0.0285747 0)
(10.0877 0.0267754 0)
(10.0923 0.0247837 0)
(10.0965 0.0226315 0)
(10.1003 0.0203876 0)
(10.0003 0.00420684 0)
(10.003 0.0121972 0)
(10.0082 0.0186523 0)
(10.0148 0.0231941 0)
(10.0217 0.026303 0)
(10.0287 0.0283964 0)
(10.0357 0.0296381 0)
(10.0426 0.0301678 0)
(10.0492 0.0301545 0)
(10.0555 0.029729 0)
(10.0615 0.0289696 0)
(10.0673 0.0279268 0)
(10.0727 0.0266393 0)
(10.0778 0.0251369 0)
(10.0825 0.0234456 0)
(10.087 0.0215942 0)
(10.091 0.0196154 0)
(10.0947 0.0175763 0)
(10.0003 0.00351738 0)
(10.0026 0.0101879 0)
(10.0071 0.0156844 0)
(10.0129 0.0196815 0)
(10.0193 0.0224538 0)
(10.0258 0.0243128 0)
(10.0323 0.025418 0)
(10.0388 0.0258897 0)
(10.0451 0.0258619 0)
(10.0511 0.0254466 0)
(10.0569 0.0247182 0)
(10.0624 0.0237271 0)
(10.0676 0.0225129 0)
(10.0725 0.0211085 0)
(10.077 0.0195441 0)
(10.0813 0.0178508 0)
(10.0851 0.0160601 0)
(10.0887 0.0142346 0)
(10.0002 0.00279654 0)
(10.0022 0.0080932 0)
(10.0061 0.0125258 0)
(10.0112 0.0158375 0)
(10.0169 0.0181605 0)
(10.0229 0.019705 0)
(10.029 0.0206087 0)
(10.035 0.0209721 0)
(10.041 0.0208975 0)
(10.0467 0.0204757 0)
(10.0522 0.0197731 0)
(10.0574 0.0188379 0)
(10.0623 0.0177083 0)
(10.067 0.0164181 0)
(10.0714 0.0149977 0)
(10.0754 0.0134783 0)
(10.0791 0.0118873 0)
(10.0826 0.0102813 0)
(10.0002 0.00204473 0)
(10.0019 0.00591623 0)
(10.0052 0.00918734 0)
(10.0097 0.0116713 0)
(10.0148 0.0134167 0)
(10.0203 0.0145496 0)
(10.0259 0.0151729 0)
(10.0315 0.0153647 0)
(10.037 0.0151992 0)
(10.0424 0.014745 0)
(10.0476 0.0140566 0)
(10.0525 0.0131761 0)
(10.0572 0.0121382 0)
(10.0617 0.0109734 0)
(10.0658 0.00970975 0)
(10.0697 0.00837483 0)
(10.0733 0.006991 0)
(10.0766 0.00560674 0)
(10.0002 0.00126065 0)
(10.0016 0.00364561 0)
(10.0045 0.0056558 0)
(10.0084 0.00717092 0)
(10.013 0.00820083 0)
(10.018 0.0088098 0)
(10.0231 0.00906161 0)
(10.0284 0.00900801 0)
(10.0335 0.00869758 0)
(10.0386 0.00817605 0)
(10.0435 0.00748266 0)
(10.0482 0.00664925 0)
(10.0526 0.00570309 0)
(10.0568 0.00466836 0)
(10.0608 0.00356748 0)
(10.0645 0.00242166 0)
(10.0679 0.00124722 0)
(10.0711 8.34477e-05 0)
(10.0002 0.00042919 0)
(10.0014 0.0012313 0)
(10.004 0.00185989 0)
(10.0075 0.00225738 0)
(10.0117 0.00242342 0)
(10.0163 0.00238115 0)
(10.0211 0.00215628 0)
(10.026 0.0017722 0)
(10.0309 0.00125225 0)
(10.0357 0.000619105 0)
(10.0403 -0.000107001 0)
(10.0448 -0.000908482 0)
(10.049 -0.00176956 0)
(10.0531 -0.00267549 0)
(10.0569 -0.00361252 0)
(10.0604 -0.00456718 0)
(10.0637 -0.00553032 0)
(10.0668 -0.00647191 0)
(10.0001 -0.000492109 0)
(10.0014 -0.00144845 0)
(10.0037 -0.00237605 0)
(10.0071 -0.00326709 0)
(10.0112 -0.00411711 0)
(10.0156 -0.00493715 0)
(10.0202 -0.00574151 0)
(10.0249 -0.00653813 0)
(10.0296 -0.00732969 0)
(10.0343 -0.00811833 0)
(10.0388 -0.00890578 0)
(10.0431 -0.00969279 0)
(10.0472 -0.0104784 0)
(10.0511 -0.0112607 0)
(10.0548 -0.0120369 0)
(10.0583 -0.0128033 0)
(10.0616 -0.0135586 0)
(10.0646 -0.0142835 0)
(10.0002 -0.0013637 0)
(10.0014 -0.00399419 0)
(10.0039 -0.00641241 0)
(10.0075 -0.00852947 0)
(10.0117 -0.0103324 0)
(10.0162 -0.0118756 0)
(10.021 -0.0132158 0)
(10.0258 -0.0143876 0)
(10.0305 -0.0154194 0)
(10.0352 -0.0163404 0)
(10.0397 -0.0171759 0)
(10.0441 -0.0179439 0)
(10.0482 -0.0186575 0)
(10.0521 -0.0193264 0)
(10.0558 -0.019958 0)
(10.0593 -0.020557 0)
(10.0625 -0.0211285 0)
(10.0656 -0.0216615 0)
(10.0002 -0.002102 0)
(10.0016 -0.00618593 0)
(10.0043 -0.00990409 0)
(10.0083 -0.0130249 0)
(10.0128 -0.015555 0)
(10.0177 -0.0176443 0)
(10.0227 -0.0193914 0)
(10.0277 -0.0208361 0)
(10.0326 -0.0220239 0)
(10.0374 -0.0230123 0)
(10.0421 -0.0238507 0)
(10.0465 -0.0245734 0)
(10.0507 -0.0252058 0)
(10.0547 -0.0257677 0)
(10.0584 -0.0262745 0)
(10.0619 -0.0267369 0)
(10.0652 -0.0271642 0)
(10.0683 -0.0275517 0)
(10.0002 -0.0027842 0)
(10.0017 -0.00831524 0)
(10.0049 -0.0133634 0)
(10.0094 -0.0173973 0)
(10.0145 -0.0204977 0)
(10.0197 -0.0229963 0)
(10.025 -0.0250469 0)
(10.0304 -0.0266898 0)
(10.0356 -0.0279858 0)
(10.0406 -0.0290131 0)
(10.0454 -0.0298342 0)
(10.05 -0.0304939 0)
(10.0543 -0.0310287 0)
(10.0583 -0.0314692 0)
(10.0621 -0.0318387 0)
(10.0656 -0.0321541 0)
(10.069 -0.032428 0)
(10.072 -0.0326594 0)
(10.0001 -0.00339107 0)
(10.0017 -0.0104201 0)
(10.0055 -0.0168077 0)
(10.0109 -0.021667 0)
(10.0166 -0.0253075 0)
(10.0222 -0.028185 0)
(10.0279 -0.0304272 0)
(10.0336 -0.0321187 0)
(10.0391 -0.0334034 0)
(10.0444 -0.0343993 0)
(10.0493 -0.0351719 0)
(10.054 -0.0357653 0)
(10.0585 -0.0362202 0)
(10.0626 -0.0365719 0)
(10.0665 -0.0368467 0)
(10.0701 -0.0370633 0)
(10.0735 -0.0372364 0)
(10.0766 -0.0373706 0)
(10.0001 -0.00387823 0)
(10.0016 -0.0129081 0)
(10.0061 -0.0203491 0)
(10.0124 -0.0254248 0)
(10.0188 -0.0294963 0)
(10.025 -0.0329736 0)
(10.0311 -0.035589 0)
(10.0372 -0.0373727 0)
(10.0429 -0.0385903 0)
(10.0484 -0.0394426 0)
(10.0536 -0.0400274 0)
(10.0584 -0.0404101 0)
(10.063 -0.0406492 0)
(10.0672 -0.0407927 0)
(10.0712 -0.0408729 0)
(10.0749 -0.0409115 0)
(10.0783 -0.0409219 0)
(10.0815 -0.0409 0)
(9.9998 -0.00355424 0)
(10.0011 -0.0165634 0)
(10.0069 -0.0255435 0)
(10.0141 -0.0297272 0)
(10.0207 -0.0330592 0)
(10.0272 -0.0365252 0)
(10.0341 -0.0394688 0)
(10.0408 -0.0416579 0)
(10.0471 -0.043252 0)
(10.053 -0.0443982 0)
(10.0585 -0.0451767 0)
(10.0637 -0.0456625 0)
(10.0685 -0.045932 0)
(10.073 -0.0460497 0)
(10.0771 -0.0460633 0)
(10.081 -0.046006 0)
(10.0846 -0.0459036 0)
(10.088 -0.0457655 0)
(9.99829 -3.55319e-06 0)
(9.99797 -0.0176292 0)
(10.0068 -0.0315201 0)
(10.0162 -0.0376128 0)
(10.0233 -0.0403183 0)
(10.0302 -0.0418784 0)
(10.0378 -0.0428435 0)
(10.0454 -0.0435479 0)
(10.0525 -0.0441584 0)
(10.0592 -0.0446828 0)
(10.0654 -0.0450881 0)
(10.0713 -0.0453861 0)
(10.0767 -0.0455988 0)
(10.0817 -0.0457533 0)
(10.0863 -0.0458644 0)
(10.0906 -0.0459484 0)
(10.0945 -0.0460105 0)
(10.0981 -0.0460183 0)
(9.99413 0.00277383 0)
(9.98996 -0.00760744 0)
(10.0032 -0.0228716 0)
(10.0185 -0.0396976 0)
(10.0302 -0.0530948 0)
(10.0403 -0.0608727 0)
(10.05 -0.0644158 0)
(10.0592 -0.0656707 0)
(10.0676 -0.0657661 0)
(10.0754 -0.0651491 0)
(10.0827 -0.0641027 0)
(10.0894 -0.0628168 0)
(10.0956 -0.0614541 0)
(10.1012 -0.0600946 0)
(10.1063 -0.0588037 0)
(10.1109 -0.0576105 0)
(10.1151 -0.056541 0)
(10.119 -0.0555475 0)
(9.9942 -0.0305092 0)
(9.99525 -0.0134625 0)
(10.0085 0.0215101 0)
(10.0272 0.0320037 0)
(10.0469 0.0241243 0)
(10.0667 0.0115768 0)
(10.0849 -0.000146857 0)
(10.1006 -0.0103685 0)
(10.1138 -0.0190147 0)
(10.1249 -0.026094 0)
(10.1341 -0.0317016 0)
(10.1415 -0.0360805 0)
(10.1473 -0.0394616 0)
(10.1516 -0.0420626 0)
(10.1546 -0.0440465 0)
(10.1564 -0.0455829 0)
(10.1574 -0.0468009 0)
(10.1573 -0.0478459 0)
(10.0368 -0.209414 0)
(10.1083 -0.365902 0)
(10.1423 -0.352753 0)
(10.1567 -0.298044 0)
(10.1696 -0.247635 0)
(10.1819 -0.206807 0)
(10.1884 -0.174374 0)
(10.1866 -0.149015 0)
(10.1773 -0.129302 0)
(10.1618 -0.113783 0)
(10.1412 -0.101391 0)
(10.1166 -0.0913664 0)
(10.0891 -0.083178 0)
(10.0594 -0.0764204 0)
(10.0284 -0.0708127 0)
(9.99644 -0.066175 0)
(9.96416 -0.0623573 0)
(9.93221 -0.0596601 0)
(9.92866 0.765531 0)
(9.83923 0.742067 0)
(9.7053 0.524426 0)
(9.52629 0.348775 0)
(9.33176 0.22768 0)
(9.14048 0.146973 0)
(8.95862 0.0935676 0)
(8.78865 0.0579714 0)
(8.63199 0.0341044 0)
(8.48925 0.0180852 0)
(8.3598 0.0074183 0)
(8.24285 0.000438458 0)
(8.13721 -0.0041113 0)
(8.04181 -0.00696684 0)
(7.95556 -0.00864679 0)
(7.87747 -0.00958682 0)
(7.80618 -0.010071 0)
(7.74133 -0.0106846 0)
(0.00961167 -0.0203108 -6.45168e-19)
(0.0282608 -0.031274 4.29421e-19)
(0.0461086 -0.02975 0)
(0.0601307 -0.0221985 0)
(0.0678555 -0.0123109 0)
(0.0688897 -0.00232189 -2.66075e-19)
(0.0637714 0.00631483 0)
(0.0540765 0.0129228 0)
(0.0409191 0.0175906 0)
(0.0252113 0.0207933 0)
(0.00764948 0.0229511 3.12715e-19)
(-0.0112916 0.0241967 0)
(-0.0314534 0.0248514 0)
(-0.0528187 0.0253997 0)
(-0.075364 0.0260449 0)
(-0.0991202 0.0268357 1.95857e-19)
(-0.124127 0.0277516 0)
(-0.150408 0.0287563 0)
(-0.177965 0.029803 0)
(-0.20677 0.0308511 0)
(-0.23677 0.0318589 0)
(-0.267892 0.0327957 0)
(-0.300043 0.0336321 0)
(-0.333122 0.0343505 1.03557e-19)
(-0.367018 0.0349306 -9.71835e-20)
(-0.401614 0.0353638 9.14964e-20)
(-0.43679 0.0356506 8.64142e-20)
(-0.472429 0.0358032 0)
(-0.508421 0.0358354 0)
(-0.544661 0.0357718 -7.4075e-20)
(-0.581047 0.0356522 -7.07399e-20)
(-0.61758 0.0354982 0)
(-0.654219 0.035303 0)
(-0.690924 0.0350778 -6.24443e-20)
(-0.727669 0.034826 0)
(-0.764436 0.0345567 0)
(-0.80121 0.0342763 5.60703e-20)
(-0.837984 0.033995 0)
(-0.874759 0.0337184 5.25918e-20)
(-0.911535 0.0334498 1.02067e-19)
(-0.948316 0.0331901 0)
(-0.985108 0.0329431 0)
(-1.02192 0.0327089 0)
(-1.05875 0.0324889 0)
(-1.09562 0.0322806 0)
(-1.13254 0.0320815 8.70893e-20)
(-1.1695 0.0318861 8.50673e-20)
(-1.20651 0.0316962 8.31498e-20)
(-1.24357 0.031511 0)
(-1.28069 0.0313305 -7.95968e-20)
(-1.31788 0.0311527 0)
(-1.35512 0.030977 7.63688e-20)
(-1.39242 0.0308017 7.48612e-20)
(-1.42977 0.0306261 0)
(-1.46717 0.0304479 0)
(-1.5046 0.0302656 0)
(-1.54206 0.0300779 6.94185e-20)
(-1.57954 0.0298837 0)
(-1.61701 0.0296817 0)
(-1.65448 0.0294703 0)
(-1.69191 0.0292495 0)
(-1.72929 0.0290181 0)
(-1.7666 0.0287759 0)
(-1.80381 0.0285209 0)
(-1.84091 0.028254 0)
(-1.87788 0.0279732 -5.9626e-20)
(-1.91468 0.0276803 0)
(-1.9513 0.0273734 0)
(-1.9877 0.0270546 5.68634e-20)
(-2.02387 0.0267217 5.59809e-20)
(-2.05976 0.0263773 0)
(-2.09535 0.0260188 -5.42643e-20)
(-2.13062 0.0256498 5.3427e-20)
(-2.16554 0.0252683 0)
(-2.20007 0.0248796 -5.17865e-20)
(-2.23418 0.0244819 0)
(-2.26784 0.0240819 0)
(-2.301 0.0236769 4.93939e-20)
(-2.33362 0.0232691 0)
(-2.36566 0.0228479 -4.78352e-20)
(-2.39706 0.0224124 0)
(-2.42779 0.0219512 4.62991e-20)
(-2.45779 0.0214616 4.55376e-20)
(-2.487 0.0209259 4.47788e-20)
(-2.51536 0.0203398 8.80435e-20)
(-2.54281 0.0196842 -8.65289e-20)
(-2.56925 0.0189553 0)
(-2.5946 0.0181366 0)
(-2.61876 0.0172273 0)
(-2.64162 0.0162271 -8.04032e-20)
(-2.66309 0.0151335 -7.88461e-20)
(-2.68305 0.0139594 7.72793e-20)
(-2.70136 0.0127125 0)
(-2.71783 0.0114049 -7.41195e-20)
(-2.73226 0.0100359 -7.25272e-20)
(-2.74442 0.00860484 -7.09241e-20)
(-2.75406 0.00710895 0)
(-2.76092 0.00556035 0)
(-2.76476 0.00403886 0)
(-2.76588 0.00258825 -6.41307e-20)
(-2.76433 0.00113444 0)
(-2.75999 -0.00038053 0)
(-2.75274 -0.00197789 5.82544e-20)
(-2.74243 -0.00367108 0)
(-2.7289 -0.00546238 0)
(-2.71199 -0.00736243 5.1386e-20)
(-2.69153 -0.00936958 0)
(-2.66738 -0.0114943 0)
(-2.63939 -0.0137329 -4.30311e-20)
(-2.60743 -0.0160937 -3.9807e-20)
(-2.57138 -0.0185698 0)
(-2.53114 -0.0211651 3.25307e-20)
(-2.48663 -0.0238687 0)
(-2.43779 -0.0266776 -2.39317e-20)
(-2.38457 -0.0295757 0)
(-2.32696 -0.0325522 -1.37177e-20)
(-2.26497 -0.0355887 -7.9062e-21)
(-2.19866 -0.0386345 0)
(-2.12811 -0.0417048 0)
(-2.0534 -0.0447613 0)
(-1.9747 -0.04773 0)
(-1.89222 -0.0506468 0)
(-1.80614 -0.0534592 0)
(-1.71682 -0.0561154 0)
(-1.62451 -0.0586231 6.0779e-20)
(-1.52956 -0.0609303 -7.27618e-20)
(-1.43234 -0.0630173 0)
(-1.33325 -0.0648579 0)
(-1.2327 -0.0664556 0)
(-1.13108 -0.0677833 0)
(-1.02884 -0.0688458 -2.94614e-19)
(-0.926393 -0.069631 0)
(-0.82414 -0.0701555 3.70441e-19)
(-0.722479 -0.0704157 -4.12557e-19)
(-0.621775 -0.0704361 0)
(-0.522379 -0.0702198 0)
(-0.424596 -0.0698132 0)
(-0.328728 -0.0691984 6.15638e-19)
(-0.235005 -0.0683893 6.77012e-19)
(-0.143659 -0.0674062 0)
(-0.0545403 -0.066018 8.02641e-19)
(0.0333503 -0.0636209 8.12608e-19)
(0.119295 -0.0603599 -7.88127e-19)
(0.201675 -0.0568109 0)
(0.280407 -0.0532973 0)
(0.355317 -0.0498958 -7.32411e-19)
(0.426368 -0.0466331 0)
(0.493597 -0.0435187 0)
(0.557072 -0.0405547 0)
(0.616885 -0.0377398 0)
(0.673141 -0.0350709 6.74191e-19)
(0.725957 -0.0325442 6.65683e-19)
(0.775459 -0.0301558 0)
(0.821782 -0.0279018 6.50815e-19)
(0.865063 -0.0257786 0)
(0.90545 -0.0237821 0)
(0.943091 -0.0219091 6.32734e-19)
(0.978142 -0.0201564 0)
(1.01076 -0.0185205 6.22809e-19)
(1.0411 -0.0169981 0)
(1.06934 -0.0155871 0)
(1.09564 -0.0142857 6.10172e-19)
(1.12017 -0.0130902 0)
(1.14309 -0.0119963 6.02794e-19)
(1.16459 -0.011 0)
(1.18484 -0.010098 0)
(1.20399 -0.00928769 0)
(1.22223 -0.00856554 -5.89137e-19)
(1.23969 -0.00792571 0)
(1.25654 -0.00736122 5.82433e-19)
(1.2729 -0.00686159 0)
(1.28886 -0.00641275 0)
(1.30449 -0.00599167 0)
(1.31973 -0.00556171 0)
(1.33446 -0.00505356 0)
(1.34802 -0.00433237 0)
(1.35987 -0.00309166 0)
(1.36517 -0.000296225 -1.12242e-18)
(1.36596 0.00596816 0)
(1.30651 0.0207207 0)
(0.00982214 -0.0593483 1.32576e-18)
(0.0200143 -0.0583526 -5.84134e-19)
(0.0221231 -0.0412042 0)
(0.0197957 -0.0225036 1.87969e-19)
(0.0139095 -0.00436074 0)
(0.00507538 0.0121736 7.67353e-20)
(-0.00635767 0.0263413 -1.45374e-19)
(-0.0204733 0.0378326 -1.38402e-19)
(-0.0372269 0.046812 0)
(-0.0565287 0.0537143 -1.27169e-19)
(-0.0782336 0.0590503 -6.11167e-20)
(-0.102078 0.0632924 0)
(-0.127729 0.0668519 0)
(-0.154945 0.0700494 0)
(-0.183571 0.0730739 0)
(-0.213465 0.0760059 -4.98243e-20)
(-0.244496 0.0788493 0)
(-0.276541 0.0815701 9.16537e-20)
(-0.309483 0.0841167 0)
(-0.343207 0.0864393 0)
(-0.377598 0.0884944 -8.14259e-20)
(-0.41254 0.0902558 0)
(-0.447924 0.0917085 7.55248e-20)
(-0.483646 0.0928478 -3.65267e-20)
(-0.51961 0.0936712 3.52637e-20)
(-0.555736 0.0941825 -3.4084e-20)
(-0.591956 0.0944012 -3.29842e-20)
(-0.628217 0.0943623 0)
(-0.664474 0.0941061 0)
(-0.700695 0.0936794 3.01239e-20)
(-0.736849 0.0931292 -2.91031e-20)
(-0.772913 0.0924911 0)
(-0.808866 0.0917843 0)
(-0.844698 0.0910292 2.71399e-20)
(-0.880406 0.0902414 0)
(-0.915992 0.0894366 0)
(-0.951461 0.0886257 -2.53717e-20)
(-0.986823 0.0878192 0)
(-1.02208 0.0870241 2.41769e-20)
(-1.05725 0.0862472 -4.78021e-20)
(-1.09232 0.0854903 0)
(-1.12732 0.084757 0)
(-1.16225 0.0840473 -9.01962e-20)
(-1.19711 0.0833615 -8.86638e-20)
(-1.23191 0.0826971 -8.71906e-20)
(-1.26666 0.0820528 4.27027e-20)
(-1.30136 0.0814245 -4.2387e-20)
(-1.33602 0.0808092 -1.24832e-19)
(-1.37063 0.0802028 8.18415e-20)
(-1.40521 0.0796024 4.0494e-20)
(-1.43974 0.0790034 0)
(-1.47422 0.0784028 -3.93399e-20)
(-1.50864 0.0777967 3.84364e-20)
(-1.543 0.077182 0)
(-1.57728 0.0765547 0)
(-1.61148 0.0759113 0)
(-1.64557 0.0752489 -3.67423e-20)
(-1.67954 0.0745645 0)
(-1.71339 0.0738557 7.12483e-20)
(-1.74708 0.0731193 0)
(-1.7806 0.0723543 6.94349e-20)
(-1.81393 0.0715586 0)
(-1.84704 0.0707312 -6.76875e-20)
(-1.87993 0.0698692 0)
(-1.91255 0.0689727 6.59939e-20)
(-1.9449 0.068039 -3.24261e-20)
(-1.97694 0.0670692 0)
(-2.00866 0.066061 -6.35312e-20)
(-2.04002 0.0650163 -3.15126e-20)
(-2.07099 0.0639324 -3.1111e-20)
(-2.10156 0.0628111 0)
(-2.13168 0.0616483 -3.00286e-20)
(-2.16133 0.0604453 -2.99185e-20)
(-2.19047 0.0591965 0)
(-2.21908 0.0579028 2.91282e-20)
(-2.24712 0.0565584 -5.72001e-20)
(-2.27454 0.0551664 0)
(-2.30131 0.0537226 -2.79402e-20)
(-2.32739 0.0522314 0)
(-2.35273 0.0506862 8.11828e-20)
(-2.37729 0.0490905 0)
(-2.40102 0.0474361 -7.87799e-20)
(-2.42386 0.0457249 -2.59352e-20)
(-2.44575 0.0439446 2.52932e-20)
(-2.46664 0.0420961 4.97705e-20)
(-2.48645 0.0401646 -4.89476e-20)
(-2.50511 0.0381466 0)
(-2.52252 0.0360208 0)
(-2.53861 0.0337774 0)
(-2.55328 0.0313971 1.37463e-19)
(-2.56645 0.0288613 4.50476e-20)
(-2.57807 0.0261562 -4.41311e-20)
(-2.58803 0.0232681 0)
(-2.59627 0.0201939 -4.19926e-20)
(-2.60273 0.0169259 4.12949e-20)
(-2.60738 0.0134731 4.0319e-20)
(-2.61024 0.00985877 0)
(-2.61133 0.00614185 0)
(-2.61068 0.00239982 0)
(-2.60786 -0.00135255 3.60909e-20)
(-2.6025 -0.00518514 0)
(-2.59443 -0.00914062 -6.73338e-20)
(-2.58348 -0.0132363 -9.73153e-20)
(-2.56947 -0.0174769 6.22676e-20)
(-2.55226 -0.0218556 0)
(-2.53168 -0.0263696 2.83988e-20)
(-2.50757 -0.0310047 0)
(-2.47979 -0.0357559 5.05312e-20)
(-2.44819 -0.0406048 -2.37371e-20)
(-2.41264 -0.0455419 -2.19956e-20)
(-2.37303 -0.0505432 0)
(-2.32925 -0.0555933 -5.33195e-20)
(-2.28122 -0.0606615 3.14259e-20)
(-2.22888 -0.065725 1.29853e-20)
(-2.1722 -0.0707476 0)
(-2.11116 -0.0757021 7.75292e-21)
(-2.04579 -0.0805532 1.58834e-20)
(-1.97615 -0.0852805 0)
(-1.90235 -0.0898379 -1.32816e-21)
(-1.8245 -0.094187 -8.07217e-21)
(-1.74282 -0.0982504 -1.52098e-20)
(-1.65748 -0.101949 0)
(-1.56873 -0.105317 0)
(-1.47694 -0.108339 0)
(-1.38241 -0.110951 2.25465e-20)
(-1.28553 -0.113121 2.96328e-20)
(-1.18669 -0.114834 0)
(-1.08631 -0.116071 7.55979e-20)
(-0.984831 -0.116834 8.55139e-20)
(-0.882683 -0.117112 0)
(-0.780307 -0.116925 1.09142e-19)
(-0.678128 -0.11628 2.33247e-19)
(-0.576558 -0.115213 -1.30499e-19)
(-0.475988 -0.113744 -1.35024e-19)
(-0.376779 -0.111919 0)
(-0.279272 -0.10976 0)
(-0.183745 -0.107313 0)
(-0.0904928 -0.104624 -1.85313e-19)
(0.000632413 -0.10191 1.87451e-19)
(0.0892888 -0.0992309 3.90365e-19)
(0.17481 -0.0962832 -2.02097e-19)
(0.256726 -0.0925495 2.01106e-19)
(0.334916 -0.0880227 2.10059e-19)
(0.409645 -0.0831859 0)
(0.481079 -0.078314 0)
(0.549188 -0.0735195 -2.16515e-19)
(0.613954 -0.0688564 0)
(0.675391 -0.0643573 0)
(0.733536 -0.0600374 4.54486e-19)
(0.788451 -0.0559084 0)
(0.840214 -0.0519746 2.30544e-19)
(0.888917 -0.0482404 -2.35403e-19)
(0.934665 -0.044706 0)
(0.977573 -0.0413726 2.3658e-19)
(1.01777 -0.0382382 0)
(1.05538 -0.0353021 0)
(1.09056 -0.0325623 -2.42943e-19)
(1.12344 -0.0300167 4.86451e-19)
(1.15417 -0.027663 -2.45012e-19)
(1.18293 -0.0254982 0)
(1.20985 -0.0235197 0)
(1.23511 -0.0217246 2.46125e-19)
(1.25888 -0.0201096 0)
(1.28132 -0.0186696 2.47273e-19)
(1.3026 -0.017401 0)
(1.32289 -0.0162974 0)
(1.34236 -0.0153522 0)
(1.36115 -0.0145547 2.48771e-19)
(1.37944 -0.0138943 0)
(1.39736 -0.013355 -2.48457e-19)
(1.41504 -0.0129167 0)
(1.43256 -0.0125471 0)
(1.44999 -0.0121993 4.94309e-19)
(1.46731 -0.011794 -4.93379e-19)
(1.48438 -0.0111872 0)
(1.50075 -0.0101063 0)
(1.51604 -0.00789253 0)
(1.52734 -0.00311905 1.47792e-18)
(1.53926 0.00803553 0)
(1.53229 0.0325082 -1.00568e-18)
(0.000703707 -0.0761858 -1.11804e-21)
(-0.00127427 -0.0545249 5.71095e-19)
(-0.00898214 -0.0277488 0)
(-0.0195777 -0.0032481 -2.38059e-19)
(-0.0321599 0.018861 0)
(-0.0462561 0.0386438 0)
(-0.0617589 0.056055 6.88897e-23)
(-0.078756 0.0710421 7.44343e-20)
(-0.0973729 0.0836798 7.09053e-20)
(-0.117699 0.094206 6.82008e-20)
(-0.139751 0.10297 0)
(-0.163461 0.11036 0)
(-0.188693 0.116729 -6.1465e-20)
(-0.21528 0.122345 -1.1899e-19)
(-0.243044 0.127394 1.15188e-19)
(-0.271808 0.131981 0)
(-0.301405 0.136148 1.07959e-19)
(-0.331687 0.139897 -5.23636e-20)
(-0.362524 0.143211 0)
(-0.393803 0.146067 9.81154e-20)
(-0.425427 0.148445 4.7652e-20)
(-0.457313 0.150338 -9.22743e-20)
(-0.489386 0.151745 -4.48647e-20)
(-0.521582 0.152682 0)
(-0.553844 0.153179 8.44663e-20)
(-0.586132 0.153274 8.21111e-20)
(-0.618425 0.153012 0)
(-0.650706 0.152445 7.7815e-20)
(-0.682961 0.151625 0)
(-0.71518 0.150606 7.40363e-20)
(-0.747352 0.149436 3.62459e-20)
(-0.779468 0.148156 0)
(-0.81152 0.146799 0)
(-0.843504 0.145395 0)
(-0.875422 0.143966 0)
(-0.907275 0.142533 0)
(-0.939065 0.141111 0)
(-0.970797 0.139711 6.28535e-20)
(-1.00248 0.138339 -9.27643e-20)
(-1.03411 0.137001 0)
(-1.06569 0.135699 0)
(-1.09724 0.134436 0)
(-1.12875 0.13321 1.93701e-22)
(-1.16023 0.132019 5.73167e-20)
(-1.19168 0.130859 1.12801e-19)
(-1.22311 0.129726 -1.11223e-19)
(-1.25451 0.128616 -5.47513e-20)
(-1.28588 0.127524 5.42149e-20)
(-1.31723 0.126444 -1.99242e-22)
(-1.34855 0.125369 5.26154e-20)
(-1.37983 0.124293 0)
(-1.41106 0.12321 5.12949e-20)
(-1.44225 0.122114 -1.99637e-22)
(-1.47338 0.120999 0)
(-1.50444 0.119861 0)
(-1.53541 0.118694 -4.88432e-20)
(-1.56629 0.117494 0)
(-1.59705 0.116257 0)
(-1.62769 0.114979 4.69336e-20)
(-1.65818 0.113656 9.31515e-20)
(-1.68851 0.112287 -4.62227e-20)
(-1.71866 0.110869 0)
(-1.7486 0.109399 4.51467e-20)
(-1.77832 0.107876 0)
(-1.80779 0.106297 4.37177e-20)
(-1.83699 0.104662 4.35673e-20)
(-1.8659 0.10297 -8.57301e-20)
(-1.89449 0.101218 -4.21693e-20)
(-1.92275 0.0994082 0)
(-1.95063 0.0975374 8.26438e-20)
(-1.97813 0.0956059 0)
(-2.00519 0.093611 1.21059e-19)
(-2.03181 0.0915519 7.9565e-20)
(-2.05795 0.0894248 7.85353e-20)
(-2.08357 0.087228 -7.75018e-20)
(-2.10865 0.0849573 1.14855e-19)
(-2.13315 0.0826111 0)
(-2.15703 0.0801846 0)
(-2.18025 0.0776757 -7.33099e-20)
(-2.20278 0.0750781 -1.08509e-19)
(-2.22457 0.0723896 0)
(-2.24558 0.0696024 3.51787e-20)
(-2.26575 0.0667123 0)
(-2.28504 0.0637096 -1.01945e-19)
(-2.30338 0.0605887 -2.61772e-22)
(-2.32073 0.057338 2.56687e-22)
(-2.33701 0.0539492 6.4468e-20)
(-2.35216 0.0504079 0)
(-2.36609 0.0467028 -6.21154e-20)
(-2.37875 0.0428191 -2.2181e-22)
(-2.39006 0.038744 0)
(-2.39996 0.0344681 0)
(-2.40839 0.0299901 0)
(-2.41525 0.0253116 5.60608e-20)
(-2.42048 0.0204395 0)
(-2.42398 0.015381 0)
(-2.42564 0.0101421 0)
(-2.42536 0.00471853 0)
(-2.42296 -0.000919241 0)
(-2.41825 -0.00679295 4.73869e-20)
(-2.41105 -0.0129039 0)
(-2.4012 -0.0192506 4.41595e-20)
(-2.38855 -0.0258331 4.24286e-20)
(-2.37292 -0.0326444 -4.06281e-20)
(-2.35417 -0.0396761 0)
(-2.33212 -0.0469129 -3.67871e-20)
(-2.30664 -0.0543399 0)
(-2.27757 -0.0619364 -3.2568e-20)
(-2.24477 -0.0696803 3.02935e-20)
(-2.20812 -0.0775429 8.43166e-20)
(-2.1675 -0.085492 0)
(-2.12282 -0.0934893 6.89468e-20)
(-2.074 -0.101491 2.08759e-20)
(-2.02097 -0.109449 0)
(-1.96372 -0.117308 2.87312e-20)
(-1.90224 -0.125011 2.22059e-20)
(-1.83657 -0.132498 -2.21409e-20)
(-1.76678 -0.139711 0)
(-1.69299 -0.146586 8.14777e-22)
(-1.61535 -0.153065 4.92387e-21)
(-1.53405 -0.159052 2.52792e-20)
(-1.4493 -0.164437 0)
(-1.36139 -0.169197 0)
(-1.27065 -0.173327 0)
(-1.17744 -0.176752 2.50886e-20)
(-1.08213 -0.179428 0)
(-0.985141 -0.181327 0)
(-0.886884 -0.182433 -4.3774e-20)
(-0.787795 -0.182749 -4.91591e-20)
(-0.688309 -0.182283 0)
(-0.588853 -0.181063 0)
(-0.489841 -0.179124 -1.31104e-19)
(-0.391671 -0.176516 0)
(-0.294714 -0.173292 1.5295e-19)
(-0.199309 -0.169513 1.60002e-19)
(-0.105769 -0.165248 0)
(-0.0142612 -0.160627 0)
(0.0749239 -0.155736 -1.87605e-19)
(0.161405 -0.150533 -3.44991e-21)
(0.244889 -0.145005 -3.32299e-21)
(0.32518 -0.139205 0)
(0.402133 -0.133139 -4.28706e-19)
(0.475731 -0.126789 0)
(0.546067 -0.120238 0)
(0.613194 -0.113639 0)
(0.677112 -0.107093 2.36583e-19)
(0.737829 -0.100668 0)
(0.795376 -0.0944138 -4.8633e-19)
(0.849802 -0.0883609 -2.49233e-19)
(0.901176 -0.0825342 0)
(0.949582 -0.0769497 -2.5636e-19)
(0.995117 -0.0716208 0)
(1.03789 -0.0665557 0)
(1.07803 -0.0617612 -7.93149e-19)
(1.11564 -0.057241 5.33167e-19)
(1.15089 -0.0529982 0)
(1.18389 -0.0490341 5.42573e-19)
(1.2148 -0.045349 -2.7432e-19)
(1.24378 -0.0419422 0)
(1.27097 -0.0388121 0)
(1.29655 -0.035957 0)
(1.32066 -0.0333733 -8.40174e-19)
(1.34348 -0.0310577 0)
(1.36517 -0.0290036 -2.82638e-19)
(1.38589 -0.0272054 0)
(1.40582 -0.0256541 0)
(1.4251 -0.0243403 0)
(1.4439 -0.0232486 0)
(1.46237 -0.0223629 0)
(1.48064 -0.0216587 0)
(1.49883 -0.0211047 -5.70661e-19)
(1.51703 -0.0206522 0)
(1.53531 -0.0202306 -2.85396e-19)
(1.55364 -0.0197222 8.55128e-19)
(1.57194 -0.0189253 0)
(1.58987 -0.0174675 0)
(1.60726 -0.0145786 -5.69492e-19)
(1.6223 -0.00879832 -5.71131e-19)
(1.63857 0.0031019 5.74442e-19)
(1.64643 0.0286543 5.82694e-19)
(-0.0084455 -0.0639472 -1.94115e-18)
(-0.0186176 -0.0312687 -6.80326e-19)
(-0.0319961 -0.000473595 -2.51099e-19)
(-0.0475573 0.0265593 -8.95264e-20)
(-0.0641165 0.0506875 0)
(-0.081268 0.0723585 1.27701e-19)
(-0.0990648 0.0917304 -5.8201e-20)
(-0.11765 0.108858 0)
(-0.137163 0.123821 -5.17633e-20)
(-0.157718 0.136775 0)
(-0.179376 0.147939 9.55369e-20)
(-0.202142 0.157567 0)
(-0.225962 0.165907 4.47191e-20)
(-0.250741 0.173177 8.66546e-20)
(-0.276356 0.179544 -8.39939e-20)
(-0.302676 0.185125 0)
(-0.329573 0.189991 -7.89731e-20)
(-0.356931 0.194184 0)
(-0.384647 0.197727 0)
(-0.412636 0.200635 -7.21439e-20)
(-0.44083 0.202924 0)
(-0.469169 0.204612 4.61922e-23)
(-0.497613 0.205727 0)
(-0.526128 0.206304 0)
(-0.554696 0.206392 -4.64763e-23)
(-0.5833 0.206049 -6.10896e-20)
(-0.611931 0.205333 -5.9543e-20)
(-0.640579 0.204302 -5.81802e-20)
(-0.669239 0.203013 0)
(-0.697906 0.20152 -1.11148e-19)
(-0.726573 0.19987 0)
(-0.755236 0.198108 -5.3257e-20)
(-0.783891 0.19627 0)
(-0.812537 0.194386 0)
(-0.841171 0.192483 5.02901e-20)
(-0.869792 0.190581 0)
(-0.8984 0.188696 -4.85678e-20)
(-0.926997 0.186839 -7.49306e-23)
(-0.955582 0.18502 9.40979e-20)
(-0.984158 0.183243 -9.25678e-20)
(-1.01273 0.181512 0)
(-1.04129 0.179827 0)
(-1.06984 0.178186 -4.42053e-20)
(-1.0984 0.176587 0)
(-1.12694 0.175025 -4.31811e-20)
(-1.15549 0.173493 4.2616e-20)
(-1.18402 0.171987 4.207e-20)
(-1.21255 0.170498 0)
(-1.24107 0.169019 -4.10291e-20)
(-1.26956 0.167541 -4.05313e-20)
(-1.29804 0.166056 7.99047e-20)
(-1.32648 0.164557 -3.95742e-20)
(-1.35488 0.163036 -3.91127e-20)